 DBCSR| CPU Multiplication driver                                           XSMM
 DBCSR| Multrec recursion limit                                              512
 DBCSR| Multiplication stack size                                           1000
 DBCSR| Maximum elements for images                                    UNLIMITED
 DBCSR| Multiplicative factor virtual images                                   1
 DBCSR| Use multiplication densification                                       T
 DBCSR| Multiplication size stacks                                             3
 DBCSR| Use memory pool for CPU allocation                                     F
 DBCSR| Number of 3D layers                                               SINGLE
 DBCSR| Use MPI memory allocation                                              F
 DBCSR| Use RMA algorithm                                                      F
 DBCSR| Use Communication thread                                               T
 DBCSR| Communication thread load                                             87
 DBCSR| Split modifier for TAS multiplication algorithm                  1.0E+00


  **** **** ******  **  PROGRAM STARTED AT               2020-11-30 13:07:24.416
 ***** ** ***  *** **   PROGRAM STARTED ON                               tcopt10
 **    ****   ******    PROGRAM STARTED BY                                hutter
 ***** **    ** ** **   PROGRAM PROCESS ID                                 85489
  **** **  *******  **  PROGRAM STARTED IN /data/hutter/GITHUB/BASIS/MOLOPT/PBE0
                                           /hbcnof

 CP2K| version string:                    CP2K version 8.0 (Development Version)
 CP2K| source code revision number:                                  git:afc71fa
 CP2K| cp2kflags: omp libint fftw3 libxc elpa parallel mpi3 scalapack xsmm spgli
 CP2K|            b sirius
 CP2K| is freely available from                            https://www.cp2k.org/
 CP2K| Program compiled at                          Tue Nov 17 10:27:14 CET 2020
 CP2K| Program compiled on                                               tcopt10
 CP2K| Program compiled for                                                local
 CP2K| Data directory path                 /data/hutter/GITHUB/CURRENT/cp2k/data
 CP2K| Input file name                                                N2-ref.inp

 GLOBAL| Force Environment number                                              1
 GLOBAL| Basis set file name                                  ../PBE0_UCSEGBASIS
 GLOBAL| Potential file name                                        ../POTENTIAL
 GLOBAL| MM Potential file name                                     MM_POTENTIAL
 GLOBAL| Coordinate file name                                      __STD_INPUT__
 GLOBAL| Method name                                                        CP2K
 GLOBAL| Project name                                                      refN2
 GLOBAL| Preferred FFT library                                             FFTW3
 GLOBAL| Preferred diagonalization lib.                                     ELPA
 GLOBAL| Run type                                                         ENERGY
 GLOBAL| All-to-all communication in single precision                          F
 GLOBAL| FFTs using library dependent lengths                                  F
 GLOBAL| Global print level                                                  LOW
 GLOBAL| MPI I/O enabled                                                       T
 GLOBAL| Total number of message passing processes                            36
 GLOBAL| Number of threads for this process                                    1
 GLOBAL| This output is from process                                           0
 GLOBAL| CPU model name                          AMD EPYC 7401 24-Core Processor
 GLOBAL| CPUID                                                              1002

 MEMORY| system memory details [Kb]
 MEMORY|                        rank 0           min           max       average
 MEMORY| MemTotal            263987256     263987256     263987256     263987256
 MEMORY| MemFree             242284772     242284772     242284772     242284772
 MEMORY| Buffers                   148           148           148           148
 MEMORY| Cached               17824368      17824368      17824368      17824368
 MEMORY| Slab                   939400        939400        939400        939400
 MEMORY| SReclaimable           420760        420760        420760        420760
 MEMORY| MemLikelyFree       260530048     260530048     260530048     260530048


 GENERATE|  Preliminary Number of Bonds generated:                             1
 GENERATE|  Achieved consistency in connectivity generation.
 GENERATE|  Number of Bonds generated:                                         1
 GENERATE|  Preliminary Number of Bends generated:                             0
 GENERATE|  Preliminary Number of Torsions generated:                          0

 *******************************************************************************
 *******************************************************************************
 **                                                                           **
 **     #####                         ##              ##                      **
 **    ##   ##            ##          ##              ##                      **
 **   ##     ##                       ##            ######                    **
 **   ##     ##  ##   ##  ##   #####  ##  ##   ####   ##    #####    #####    **
 **   ##     ##  ##   ##  ##  ##      ## ##   ##      ##   ##   ##  ##   ##   **
 **   ##  ## ##  ##   ##  ##  ##      ####     ###    ##   ######   ######    **
 **    ##  ###   ##   ##  ##  ##      ## ##      ##   ##   ##       ##        **
 **     #######   #####   ##   #####  ##  ##  ####    ##    #####   ##        **
 **           ##                                                    ##        **
 **                                                                           **
 **                                                ... make the atoms dance   **
 **                                                                           **
 **            Copyright (C) by CP2K developers group (2000 - 2020)           **
 **                      J. Chem. Phys. 152, 194103 (2020)                    **
 **                                                                           **
 *******************************************************************************


 TOTAL NUMBERS AND MAXIMUM NUMBERS

  Total number of            - Atomic kinds:                                   1
                             - Atoms:                                          2
                             - Shell sets:                                    24
                             - Shells:                                        40
                             - Primitive Cartesian functions:                 24
                             - Cartesian basis functions:                    112
                             - Spherical basis functions:                    104

  Maximum angular momentum of- Orbital basis functions:                        2
                             - Local part of the GTH pseudopotential:          2
                             - Non-local part of the GTH pseudopotential:      0


 SCF PARAMETERS         Density guess:                                    ATOMIC
                        --------------------------------------------------------
                        max_scf:                                              10
                        max_scf_history:                                       0
                        max_diis:                                              4
                        --------------------------------------------------------
                        eps_scf:                                        1.00E-07
                        eps_scf_history:                                0.00E+00
                        eps_diis:                                       1.00E-01
                        eps_eigval:                                     1.00E-05
                        --------------------------------------------------------
                        level_shift [a.u.]:                                 0.00
                        --------------------------------------------------------
                        Outer loop SCF in use 
                        No variables optimised in outer loop
                        eps_scf                                         1.00E-07
                        max_scf                                               10
                        No outer loop optimization
                        step_size                                       5.00E-01

 Number of electrons:                                                         10
 Number of occupied orbitals:                                                  5
 Number of molecular orbitals:                                                 5

 Number of orbital functions:                                                104
 Number of independent orbital functions:                                    104

 Extrapolation method: initial_guess


 SCF WAVEFUNCTION OPTIMIZATION

  ----------------------------------- OT ---------------------------------------
  Minimizer      : DIIS                : direct inversion
                                         in the iterative subspace
                                         using   7 DIIS vectors
                                         safer DIIS on
  Preconditioner : FULL_ALL            : diagonalization, state selective
  Precond_solver : DEFAULT
  stepsize       :    0.15000000                  energy_gap     :    0.08000000
  eps_taylor     :   0.10000E-15                  max_taylor     :             4
  ----------------------------------- OT ---------------------------------------

  Step     Update method      Time    Convergence         Total energy    Change
  ------------------------------------------------------------------------------
     1 OT DIIS     0.15E+00    1.4     0.18398917       -18.4664236749 -1.85E+01
     2 OT DIIS     0.15E+00    0.5     0.10903047       -19.6138530282 -1.15E+00
     3 OT DIIS     0.15E+00    0.5     0.08827149       -19.7745230030 -1.61E-01
     4 OT DIIS     0.15E+00    0.5     0.03820293       -19.8641288668 -8.96E-02
     5 OT DIIS     0.15E+00    0.5     0.01518320       -19.8845204457 -2.04E-02
     6 OT DIIS     0.15E+00    0.5     0.00432346       -19.8901453765 -5.62E-03
     7 OT DIIS     0.15E+00    0.5     0.00251482       -19.8908316804 -6.86E-04
     8 OT DIIS     0.15E+00    0.5     0.00088990       -19.8909496824 -1.18E-04
     9 OT DIIS     0.15E+00    0.5     0.00013535       -19.8909797956 -3.01E-05
    10 OT DIIS     0.15E+00    0.5     0.00003829       -19.8909810091 -1.21E-06

  Leaving inner SCF loop after reaching    10 steps.


  Electronic density on regular grids:        -10.0000000000        0.0000000000
  Core density on regular grids:               10.0000000000       -0.0000000000
  Total charge density on r-space grids:        0.0000000000
  Total charge density g-space grids:           0.0000000000

  Overlap energy of the core charge distribution:               0.00000199916106
  Self energy of the core charge distribution:                -49.65559231613203
  Core Hamiltonian energy:                                     14.11831819102827
  Hartree energy:                                              20.51590020554308
  Exchange-correlation energy:                                 -3.75651831804748
  Hartree-Fock Exchange energy:                                -1.11309077062760

  Total energy:                                               -19.89098100907470

  outer SCF iter =    1 RMS gradient =   0.38E-04 energy =        -19.8909810091

  ----------------------------------- OT ---------------------------------------
  Minimizer      : DIIS                : direct inversion
                                         in the iterative subspace
                                         using   7 DIIS vectors
                                         safer DIIS on
  Preconditioner : FULL_ALL            : diagonalization, state selective
  Precond_solver : DEFAULT
  stepsize       :    0.15000000                  energy_gap     :    0.08000000
  eps_taylor     :   0.10000E-15                  max_taylor     :             4
  ----------------------------------- OT ---------------------------------------

  Step     Update method      Time    Convergence         Total energy    Change
  ------------------------------------------------------------------------------
     1 OT DIIS     0.15E+00    1.0     0.00001684       -19.8909810970 -8.79E-08
     2 OT DIIS     0.15E+00    0.5     0.00000890       -19.8909811107 -1.37E-08
     3 OT DIIS     0.15E+00    0.5     0.00000668       -19.8909811130 -2.39E-09
     4 OT DIIS     0.15E+00    0.5     0.00000058       -19.8909811144 -1.32E-09
     5 OT DIIS     0.15E+00    0.5     0.00000018       -19.8909811144 -2.11E-11
     6 OT DIIS     0.15E+00    0.5     0.00000002       -19.8909811144 -2.55E-12

  *** SCF run converged in     6 steps ***


  Electronic density on regular grids:        -10.0000000000        0.0000000000
  Core density on regular grids:               10.0000000000       -0.0000000000
  Total charge density on r-space grids:        0.0000000000
  Total charge density g-space grids:           0.0000000000

  Overlap energy of the core charge distribution:               0.00000199916106
  Self energy of the core charge distribution:                -49.65559231613203
  Core Hamiltonian energy:                                     14.11830089930234
  Hartree energy:                                              20.51591091756353
  Exchange-correlation energy:                                 -3.75651273362173
  Hartree-Fock Exchange energy:                                -1.11308988066142

  Total energy:                                               -19.89098111438826

  outer SCF iter =    2 RMS gradient =   0.19E-07 energy =        -19.8909811144
  outer SCF loop converged in   2 iterations or   16 steps


 ENERGY| Total FORCE_EVAL ( QS ) energy [a.u.]:              -19.890981114388257

 -------------------------------------------------------------------------------
 -                                                                             -
 -                                DBCSR STATISTICS                             -
 -                                                                             -
 -------------------------------------------------------------------------------
 COUNTER                                    TOTAL       BLAS       SMM       ACC
 flops     5 x     5 x     5                22500       0.0%    100.0%      0.0%
 flops     5 x     5 x    52               343200       0.0%    100.0%      0.0%
 flops    52 x     5 x     5               426400       0.0%    100.0%      0.0%
 flops    52 x    52 x     5              1379040       0.0%    100.0%      0.0%
 flops    52 x     5 x    52              8869120       0.0%    100.0%      0.0%
 flops inhomo. stacks                           0       0.0%      0.0%      0.0%
 flops total                        11.040260E+06       0.0%    100.0%      0.0%
 flops max/rank                      5.473140E+06       0.0%    100.0%      0.0%
 matmuls inhomo. stacks                         0       0.0%      0.0%      0.0%
 matmuls total                                765       0.0%    100.0%      0.0%
 number of processed stacks                   765       0.0%    100.0%      0.0%
 average stack size                                     0.0       1.0       0.0
 marketing flops                    11.510296E+06
 -------------------------------------------------------------------------------
 # multiplications                            339
 max memory usage/rank             351.268864E+06
 # max total images/rank                        1
 # max 3D layers                                1
 # MPI messages exchanged                  122040
 MPI messages size (bytes):
  total size                        42.602480E+06
  min size                           0.000000E+00
  max size                          21.632000E+03
  average size                     349.086212E+00
 MPI breakdown and total messages size (bytes):
             size <=      128              115790                        0
       128 < size <=     8192                4610                  7126000
      8192 < size <=    32768                1640                 35476480
     32768 < size <=   131072                   0                        0
    131072 < size <=  4194304                   0                        0
   4194304 < size <= 16777216                   0                        0
  16777216 < size                               0                        0
 -------------------------------------------------------------------------------
 -                                                                             -
 -                      DBCSR MESSAGE PASSING PERFORMANCE                      -
 -                                                                             -
 -------------------------------------------------------------------------------
 ROUTINE             CALLS      AVE VOLUME [Bytes]
 MP_Bcast                6                     12.
 MP_Allreduce         1813                      8.
 MP_Alltoall          1474                   2521.
 MP_ISend             8128                    639.
 MP_IRecv             8128                    328.
 -------------------------------------------------------------------------------

 -------------------------------------------------------------------------------
 -                                                                             -
 -                                GRID STATISTICS                              -
 -                                                                             -
 -------------------------------------------------------------------------------
 LP    KERNEL    OPERATION                                     COUNT     PERCENT
 0     general   collocate                                        72       0.50%
 2     ortho     integrate                                      3056      21.38%
 2     ortho     collocate                                      3247      22.71%
 3     ortho     integrate                                      3072      21.49%
 3     ortho     collocate                                      3264      22.83%
 4     ortho     integrate                                       768       5.37%
 4     ortho     collocate                                       816       5.71%
 -------------------------------------------------------------------------------

 MEMORY| Estimated peak process memory [MiB]                                 336

 -------------------------------------------------------------------------------
 -                                                                             -
 -                         MESSAGE PASSING PERFORMANCE                         -
 -                                                                             -
 -------------------------------------------------------------------------------

 ROUTINE             CALLS      AVE VOLUME [Bytes]
 MP_Group                5
 MP_Bcast              183                 509273.
 MP_Allreduce          603                   2312.
 MP_Sync               101
 MP_Alltoall           326                6092402.
 MP_ISendRecv         3500                  29372.
 MP_Wait              6579
 MP_comm_split          14
 MP_ISend             2812                 166755.
 MP_IRecv             2812                 166755.
 MP_Recv                 4                    832.
 -------------------------------------------------------------------------------


 -------------------------------------------------------------------------------
 -                                                                             -
 -                           R E F E R E N C E S                               -
 -                                                                             -
 -------------------------------------------------------------------------------
 
 CP2K version 8.0 (Development Version), the CP2K developers group (2020).
 CP2K is freely available from https://www.cp2k.org/ .

 Kuehne,Thomas D.; Iannuzzi,Marcella; Del Ben,Mauro;
 Rybkin,Vladimir V.; Seewald,Patrick; Stein,Frederick; Laino,Teodoro;
 Khaliullin,Rustam Z.; Schuett,Ole; Schiffmann,Florian; Golze,Dorothea;
 Wilhelm,Jan; Chulkov,Sergey; Bani-Hashemian,Mohammad Hossein;
 Weber,Valery; Borstnik,Urban; Taillefumier,Mathieu;
 Jakobovits,Alice Shoshana; Lazzaro,Alfio; Pabst,Hans; Mueller,Tiziano;
 Schade,Robert; Guidon,Manuel; Andermatt,Samuel; Holmberg,Nico;
 Schenter,Gregory K.; Hehn,Anna; Bussy,Augustin; Belleflamme,Fabian;
 Tabacchi,Gloria; Gloess,Andreas; Lass,Michael; Bethune,Iain;
 Mundy,Christopher J.; Plessl,Christian; Watkins,Matt;
 VandeVondele,Joost; Krack,Matthias; Hutter,Juerg. 
 The Journal of Chemical Physics, 152 (19), (2020). 
 CP2K: An electronic structure and molecular dynamics software package -
 Quickstep: Efficient and accurate electronic structure calculations.
 https://doi.org/10.1063/5.0007045

 Schuett, Ole; Messmer, Peter; Hutter, Juerg; VandeVondele, Joost. 
 Electronic Structure Calculations on Graphics Processing Units, John
 Wiley & Sons, Ltd, 173-190 (2016). 
 GPU-Accelerated Sparse Matrix-Matrix Multiplication for
 Linear Scaling Density Functional Theory.
 https://doi.org/10.1002/9781118670712.ch8

 Borstnik, U; VandeVondele, J; Weber, V; Hutter, J. 
 PARALLEL COMPUTING, 40 (5-6), 47-58 (2014). 
 Sparse matrix multiplication: The distributed block-compressed sparse
 row library.
 https://doi.org/10.1016/j.parco.2014.03.012

 Hutter, J; Iannuzzi, M; Schiffmann, F; VandeVondele, J. 
 WIREs Comput Mol Sci., 4 (1), 15-25 (2014). 
 CP2K: atomistic simulations of condensed matter systems.
 https://doi.org/10.1002/wcms.1159

 Marek, A; Blum, V; Johanni, R; Havu, V; Lang, B; Auckenthaler, T;
 Heinecke, A; Bungartz, H; Lederer, H. 
 Journal of Physics: Condensed Matter, 26 (21), (2014). 
 The ELPA library: scalable parallel eigenvalue solutions for
 electronic structure
 theory and computational science.
 https://doi.org/10.1088/0953-8984/26/21/213201

 Guidon, M; Hutter, J; VandeVondele, J. 
 JOURNAL OF CHEMICAL THEORY AND COMPUTATION, 5 (11), 3010-3021 (2009). 
 Robust Periodic Hartree-Fock Exchange for Large-Scale Simulations Using
 Gaussian Basis Sets.
 https://doi.org/10.1021/ct900494g

 Guidon, M; Schiffmann, F; Hutter, J; VandeVondele, J. 
 JOURNAL OF CHEMICAL PHYSICS, 128 (21), 214104 (2008). 
 Ab initio molecular dynamics using hybrid density functionals.
 https://doi.org/10.1063/1.2931945

 Krack, M. 
 THEORETICAL CHEMISTRY ACCOUNTS, 114 (1-3), 145-152 (2005). 
 Pseudopotentials for H to Kr optimized for gradient-corrected
 exchange-correlation functionals.
 https://doi.org/10.1007/s00214-005-0655-y

 VandeVondele, J; Krack, M; Mohamed, F; Parrinello, M; Chassaing, T;
 Hutter, J. COMPUTER PHYSICS COMMUNICATIONS, 167 (2), 103-128 (2005). 
 QUICKSTEP: Fast and accurate density functional calculations using a
 mixed Gaussian and plane waves approach.
 https://doi.org/10.1016/j.cpc.2004.12.014

 Frigo, M; Johnson, SG. 
 PROCEEDINGS OF THE IEEE, 93 (2), 216-231 (2005). 
 The design and implementation of FFTW3.
 https://doi.org/10.1109/JPROC.2004.840301

 VandeVondele, J; Hutter, J. 
 JOURNAL OF CHEMICAL PHYSICS, 118 (10), 4365-4369 (2003). 
 An efficient orbital transformation method for electronic structure
 calculations.
 https://doi.org/10.1063/1.1543154

 Martyna, GJ; Tuckerman, ME. 
 JOURNAL OF CHEMICAL PHYSICS, 110 (6), 2810-2821 (1999). 
 A reciprocal space based method for treating long range interactions in
 ab initio and force-field-based calculations in clusters.
 https://doi.org/10.1063/1.477923

 Hartwigsen, C; Goedecker, S; Hutter, J. 
 PHYSICAL REVIEW B, 58 (7), 3641-3662 (1998). 
 Relativistic separable dual-space Gaussian pseudopotentials from H to Rn.
 https://doi.org/10.1103/PhysRevB.58.3641

 Lippert, G; Hutter, J; Parrinello, M. 
 MOLECULAR PHYSICS, 92 (3), 477-487 (1997). 
 A hybrid Gaussian and plane wave density functional scheme.
 https://doi.org/10.1080/002689797170220

 Perdew, JP; Burke, K; Ernzerhof, M. 
 PHYSICAL REVIEW LETTERS, 77 (18), 3865-3868 (1996). 
 Generalized gradient approximation made simple.
 https://doi.org/10.1103/PhysRevLett.77.3865

 Goedecker, S; Teter, M; Hutter, J. 
 PHYSICAL REVIEW B, 54 (3), 1703-1710 (1996). 
 Separable dual-space Gaussian pseudopotentials.
 https://doi.org/10.1103/PhysRevB.54.1703


 -------------------------------------------------------------------------------
 -                                                                             -
 -                                T I M I N G                                  -
 -                                                                             -
 -------------------------------------------------------------------------------
 SUBROUTINE                       CALLS  ASD         SELF TIME        TOTAL TIME
                                MAXIMUM       AVERAGE  MAXIMUM  AVERAGE  MAXIMUM
 CP2K                                 1  1.0    0.008    0.010    9.319    9.320
 qs_energies                          1  2.0    0.000    0.000    9.090    9.091
 scf_env_do_scf                       1  3.0    0.000    0.000    8.915    8.915
 scf_env_do_scf_inner_loop           16  4.0    0.001    0.001    7.153    7.153
 qs_ks_update_qs_env                 18  5.0    0.000    0.000    6.981    6.981
 rebuild_ks_matrix                   16  6.0    0.000    0.000    6.980    6.980
 qs_ks_build_kohn_sham_matrix        16  7.0    0.003    0.003    6.980    6.980
 pw_transfer                        311  9.6    0.027    0.034    4.075    4.717
 fft_wrap_pw1pw2                    279 10.7    0.004    0.005    4.016    4.658
 fft_wrap_pw1pw2_300                179 11.8    0.198    0.243    3.757    4.385
 fft3d_ps                           279 12.7    1.395    1.503    3.249    3.965
 qs_vxc_create                       16  8.0    0.000    0.001    3.455    3.465
 xc_vxc_pw_create                    16  9.0    0.028    0.048    3.454    3.465
 mp_alltoall_z22v                   279 14.7    1.519    2.323    1.519    2.323
 xc_rho_set_and_dset_create          16 10.0    0.015    0.018    1.764    2.114
 hfx_ks_matrix                       16  8.0    0.001    0.001    1.776    1.777
 integrate_four_center               16  9.0    0.006    0.007    1.775    1.775
 init_scf_loop                        2  4.0    0.000    0.000    1.760    1.761
 yz_to_x                            134 13.1    0.138    0.175    1.056    1.756
 qs_rho_update_rho                   17  5.0    0.000    0.000    1.721    1.721
 calculate_rho_elec                  17  6.0    0.012    0.012    1.721    1.721
 density_rs2pw                       17  7.0    0.001    0.001    1.363    1.434
 rs_pw_transfer                     133  9.4    0.003    0.004    1.218    1.294
 sum_up_and_integrate                16  8.0    0.007    0.009    1.148    1.149
 mp_sync                            101 10.8    0.965    1.148    0.965    1.148
 integrate_v_rspace_low              16  9.0    0.016    0.116    1.141    1.142
 integrate_four_center_main          16 10.0    0.002    0.003    0.182    1.127
 integrate_four_center_bin         2048 11.0    0.180    1.125    0.180    1.125
 xc_functional_eval                  16 11.0    0.000    0.000    0.675    1.028
 pbe_lda_eval                        16 12.0    0.675    1.027    0.675    1.027
 potential_pw2rs                     16 10.0    0.001    0.001    1.020    1.021
 x_to_yz                            145 14.2    0.189    0.214    0.790    0.890
 mp_waitany                        2812 11.4    0.409    0.607    0.409    0.607
 rs_pw_transfer_RS2PW_300            18  8.9    0.211    0.295    0.420    0.491
 rs_pw_transfer_PW2RS_300            16 12.0    0.203    0.261    0.356    0.408
 calc_screening_functions             1 10.0    0.172    0.174    0.349    0.353
 pw_gather_p                        134 12.1    0.266    0.341    0.266    0.341
 pw_scatter_p                       145 13.2    0.285    0.326    0.285    0.326
 grid_collocate_task_list            17  7.0    0.199    0.323    0.199    0.323
 qs_scf_new_mos                      16  5.0    0.000    0.000    0.257    0.257
 qs_scf_loop_do_ot                   16  6.0    0.000    0.000    0.257    0.257
 mp_waitall_1                     25463 13.7    0.175    0.257    0.175    0.257
 pw_poisson_solve                    16  8.0    0.039    0.055    0.247    0.249
 ot_scf_mini                         16  7.0    0.000    0.000    0.246    0.246
 rs_pw_transfer_PW2RS_100            16 12.0    0.058    0.072    0.177    0.237
 dbcsr_multiply_generic             339 10.0    0.009    0.009    0.232    0.234
 powell_optimize                  83419 11.0    0.225    0.229    0.225    0.229
 rs_grid_zero                       101  8.9    0.175    0.209    0.175    0.209
 calc_pair_dist_radii                 1 10.0    0.157    0.159    0.205    0.207
 qs_init_subsys                       1  2.0    0.001    0.001    0.199    0.199
 qs_env_setup                         1  3.0    0.000    0.000    0.198    0.198
 qs_env_rebuild_pw_env                2  3.5    0.000    0.000    0.198    0.198
 pw_env_rebuild                       1  5.0    0.000    0.000    0.198    0.198
 pw_grid_setup                        5  6.0    0.000    0.000    0.192    0.192
 pw_grid_setup_internal               5  7.0    0.004    0.004    0.192    0.192
 -------------------------------------------------------------------------------

 The number of warnings for this run is : 0
 
 -------------------------------------------------------------------------------
  **** **** ******  **  PROGRAM ENDED AT                 2020-11-30 13:07:34.472
 ***** ** ***  *** **   PROGRAM RAN ON                                   tcopt10
 **    ****   ******    PROGRAM RAN BY                                    hutter
 ***** **    ** ** **   PROGRAM PROCESS ID                                 85489
  **** **  *******  **  PROGRAM STOPPED IN /data/hutter/GITHUB/BASIS/MOLOPT/PBE0
                                           /hbcnof
