 DBCSR| CPU Multiplication driver                                           XSMM
 DBCSR| Multrec recursion limit                                              512
 DBCSR| Multiplication stack size                                           1000
 DBCSR| Maximum elements for images                                    UNLIMITED
 DBCSR| Multiplicative factor virtual images                                   1
 DBCSR| Use multiplication densification                                       T
 DBCSR| Multiplication size stacks                                             3
 DBCSR| Use memory pool for CPU allocation                                     F
 DBCSR| Number of 3D layers                                               SINGLE
 DBCSR| Use MPI memory allocation                                              F
 DBCSR| Use RMA algorithm                                                      F
 DBCSR| Use Communication thread                                               T
 DBCSR| Communication thread load                                             87
 DBCSR| Split modifier for TAS multiplication algorithm                  1.0E+00


  **** **** ******  **  PROGRAM STARTED AT               2020-11-30 13:27:45.992
 ***** ** ***  *** **   PROGRAM STARTED ON                               tcopt10
 **    ****   ******    PROGRAM STARTED BY                                hutter
 ***** **    ** ** **   PROGRAM PROCESS ID                                 88572
  **** **  *******  **  PROGRAM STARTED IN /data/hutter/GITHUB/BASIS/MOLOPT/PBE0
                                           /hbcnof

 CP2K| version string:                    CP2K version 8.0 (Development Version)
 CP2K| source code revision number:                                  git:afc71fa
 CP2K| cp2kflags: omp libint fftw3 libxc elpa parallel mpi3 scalapack xsmm spgli
 CP2K|            b sirius
 CP2K| is freely available from                            https://www.cp2k.org/
 CP2K| Program compiled at                          Tue Nov 17 10:27:14 CET 2020
 CP2K| Program compiled on                                               tcopt10
 CP2K| Program compiled for                                                local
 CP2K| Data directory path                 /data/hutter/GITHUB/CURRENT/cp2k/data
 CP2K| Input file name                                                N4-ref.inp

 GLOBAL| Force Environment number                                              1
 GLOBAL| Basis set file name                                  ../PBE0_UCSEGBASIS
 GLOBAL| Potential file name                                        ../POTENTIAL
 GLOBAL| MM Potential file name                                     MM_POTENTIAL
 GLOBAL| Coordinate file name                                      __STD_INPUT__
 GLOBAL| Method name                                                        CP2K
 GLOBAL| Project name                                                      refN4
 GLOBAL| Preferred FFT library                                             FFTW3
 GLOBAL| Preferred diagonalization lib.                                     ELPA
 GLOBAL| Run type                                                         ENERGY
 GLOBAL| All-to-all communication in single precision                          F
 GLOBAL| FFTs using library dependent lengths                                  F
 GLOBAL| Global print level                                                  LOW
 GLOBAL| MPI I/O enabled                                                       T
 GLOBAL| Total number of message passing processes                            36
 GLOBAL| Number of threads for this process                                    1
 GLOBAL| This output is from process                                           0
 GLOBAL| CPU model name                          AMD EPYC 7401 24-Core Processor
 GLOBAL| CPUID                                                              1002

 MEMORY| system memory details [Kb]
 MEMORY|                        rank 0           min           max       average
 MEMORY| MemTotal            263987256     263987256     263987256     263987256
 MEMORY| MemFree             242353840     242353840     242353840     242353840
 MEMORY| Buffers                   148           148           148           148
 MEMORY| Cached               17674576      17674576      17674576      17674576
 MEMORY| Slab                   937864        937864        937864        937864
 MEMORY| SReclaimable           419352        419352        419352        419352
 MEMORY| MemLikelyFree       260447916     260447916     260447916     260447916


 GENERATE|  Preliminary Number of Bonds generated:                             6
 GENERATE|  Achieved consistency in connectivity generation.
 GENERATE|  Number of Bonds generated:                                         6
 GENERATE|  Preliminary Number of Bends generated:                            12
 GENERATE|  Number of Bends generated:                                        12
 GENERATE|  Number of UB generated:                                           12
 GENERATE|  Preliminary Number of Torsions generated:                         12
 GENERATE|  Number of Torsions generated:                                     12
 GENERATE|  Number of Impropers generated:                                     4

 *******************************************************************************
 *******************************************************************************
 **                                                                           **
 **     #####                         ##              ##                      **
 **    ##   ##            ##          ##              ##                      **
 **   ##     ##                       ##            ######                    **
 **   ##     ##  ##   ##  ##   #####  ##  ##   ####   ##    #####    #####    **
 **   ##     ##  ##   ##  ##  ##      ## ##   ##      ##   ##   ##  ##   ##   **
 **   ##  ## ##  ##   ##  ##  ##      ####     ###    ##   ######   ######    **
 **    ##  ###   ##   ##  ##  ##      ## ##      ##   ##   ##       ##        **
 **     #######   #####   ##   #####  ##  ##  ####    ##    #####   ##        **
 **           ##                                                    ##        **
 **                                                                           **
 **                                                ... make the atoms dance   **
 **                                                                           **
 **            Copyright (C) by CP2K developers group (2000 - 2020)           **
 **                      J. Chem. Phys. 152, 194103 (2020)                    **
 **                                                                           **
 *******************************************************************************


 TOTAL NUMBERS AND MAXIMUM NUMBERS

  Total number of            - Atomic kinds:                                   1
                             - Atoms:                                          4
                             - Shell sets:                                    48
                             - Shells:                                        80
                             - Primitive Cartesian functions:                 48
                             - Cartesian basis functions:                    224
                             - Spherical basis functions:                    208

  Maximum angular momentum of- Orbital basis functions:                        2
                             - Local part of the GTH pseudopotential:          2
                             - Non-local part of the GTH pseudopotential:      0


 SCF PARAMETERS         Density guess:                                    ATOMIC
                        --------------------------------------------------------
                        max_scf:                                              10
                        max_scf_history:                                       0
                        max_diis:                                              4
                        --------------------------------------------------------
                        eps_scf:                                        1.00E-07
                        eps_scf_history:                                0.00E+00
                        eps_diis:                                       1.00E-01
                        eps_eigval:                                     1.00E-05
                        --------------------------------------------------------
                        level_shift [a.u.]:                                 0.00
                        --------------------------------------------------------
                        Outer loop SCF in use 
                        No variables optimised in outer loop
                        eps_scf                                         1.00E-07
                        max_scf                                               10
                        No outer loop optimization
                        step_size                                       5.00E-01

 Number of electrons:                                                         20
 Number of occupied orbitals:                                                 10
 Number of molecular orbitals:                                                10

 Number of orbital functions:                                                208
 Number of independent orbital functions:                                    208

 Extrapolation method: initial_guess


 SCF WAVEFUNCTION OPTIMIZATION

  ----------------------------------- OT ---------------------------------------
  Minimizer      : DIIS                : direct inversion
                                         in the iterative subspace
                                         using   7 DIIS vectors
                                         safer DIIS on
  Preconditioner : FULL_ALL            : diagonalization, state selective
  Precond_solver : DEFAULT
  stepsize       :    0.15000000                  energy_gap     :    0.08000000
  eps_taylor     :   0.10000E-15                  max_taylor     :             4
  ----------------------------------- OT ---------------------------------------

  Step     Update method      Time    Convergence         Total energy    Change
  ------------------------------------------------------------------------------
     1 OT DIIS     0.15E+00    1.8     0.10352162       -36.8776200615 -3.69E+01
     2 OT DIIS     0.15E+00    0.6     0.19700428       -36.9335004771 -5.59E-02
     3 OT DIIS     0.15E+00    0.6     0.03439613       -38.5909822618 -1.66E+00
     4 OT DIIS     0.15E+00    0.6     0.04111248       -38.7351651174 -1.44E-01
     5 OT DIIS     0.15E+00    0.6     0.03839148       -38.8687116876 -1.34E-01
     6 OT SD       0.15E+00    0.6     0.03834318       -38.8836074544 -1.49E-02
     7 OT SD       0.15E+00    0.6     0.04708578       -39.2818379189 -3.98E-01
     8 OT DIIS     0.15E+00    0.6     0.08962498       -39.0623902495  2.19E-01
     9 OT DIIS     0.15E+00    0.6     0.05341313       -39.0132151608  4.92E-02
    10 OT DIIS     0.15E+00    0.6     0.05133411       -39.1583350293 -1.45E-01

  Leaving inner SCF loop after reaching    10 steps.


  Electronic density on regular grids:        -20.0000000000        0.0000000000
  Core density on regular grids:               20.0000000000       -0.0000000000
  Total charge density on r-space grids:       -0.0000000000
  Total charge density g-space grids:          -0.0000000000

  Overlap energy of the core charge distribution:               0.00000000039020
  Self energy of the core charge distribution:                -99.31118463226406
  Core Hamiltonian energy:                                     28.33473581213508
  Hartree energy:                                              41.55851524979092
  Exchange-correlation energy:                                 -7.54360502123171
  Hartree-Fock Exchange energy:                                -2.19679643810710

  Total energy:                                               -39.15833502928666

  outer SCF iter =    1 RMS gradient =   0.51E-01 energy =        -39.1583350293

  ----------------------------------- OT ---------------------------------------
  Minimizer      : DIIS                : direct inversion
                                         in the iterative subspace
                                         using   7 DIIS vectors
                                         safer DIIS on
  Preconditioner : FULL_ALL            : diagonalization, state selective
  Precond_solver : DEFAULT
  stepsize       :    0.15000000                  energy_gap     :    0.08000000
  eps_taylor     :   0.10000E-15                  max_taylor     :             4
  ----------------------------------- OT ---------------------------------------

  Step     Update method      Time    Convergence         Total energy    Change
  ------------------------------------------------------------------------------
     1 OT DIIS     0.15E+00    1.2     0.02119127       -39.4127441249 -2.54E-01
     2 OT DIIS     0.15E+00    0.6     0.01344922       -39.4896191222 -7.69E-02
     3 OT DIIS     0.15E+00    0.6     0.00740175       -39.5075945423 -1.80E-02
     4 OT DIIS     0.15E+00    0.6     0.00078435       -39.5157873063 -8.19E-03
     5 OT DIIS     0.15E+00    0.6     0.00036431       -39.5158992412 -1.12E-04
     6 OT DIIS     0.15E+00    0.6     0.00025937       -39.5159181906 -1.89E-05
     7 OT DIIS     0.15E+00    0.6     0.00004014       -39.5159262793 -8.09E-06
     8 OT DIIS     0.15E+00    0.6     0.00000975       -39.5159267099 -4.31E-07
     9 OT DIIS     0.15E+00    0.6     0.00000585       -39.5159267296 -1.97E-08
    10 OT DIIS     0.15E+00    0.6     0.00000171       -39.5159267333 -3.73E-09

  Leaving inner SCF loop after reaching    10 steps.


  Electronic density on regular grids:        -20.0000000000       -0.0000000000
  Core density on regular grids:               20.0000000000       -0.0000000000
  Total charge density on r-space grids:       -0.0000000000
  Total charge density g-space grids:          -0.0000000000

  Overlap energy of the core charge distribution:               0.00000000039020
  Self energy of the core charge distribution:                -99.31118463226406
  Core Hamiltonian energy:                                     28.07180139355745
  Hartree energy:                                              41.49531183733812
  Exchange-correlation energy:                                 -7.56438713656333
  Hartree-Fock Exchange energy:                                -2.20746819579934

  Total energy:                                               -39.51592673334096

  outer SCF iter =    2 RMS gradient =   0.17E-05 energy =        -39.5159267333

  ----------------------------------- OT ---------------------------------------
  Minimizer      : DIIS                : direct inversion
                                         in the iterative subspace
                                         using   7 DIIS vectors
                                         safer DIIS on
  Preconditioner : FULL_ALL            : diagonalization, state selective
  Precond_solver : DEFAULT
  stepsize       :    0.15000000                  energy_gap     :    0.08000000
  eps_taylor     :   0.10000E-15                  max_taylor     :             4
  ----------------------------------- OT ---------------------------------------

  Step     Update method      Time    Convergence         Total energy    Change
  ------------------------------------------------------------------------------
     1 OT DIIS     0.15E+00    1.2     0.00000061       -39.5159267339 -5.60E-10
     2 OT DIIS     0.15E+00    0.6     0.00000052       -39.5159267339 -2.50E-11
     3 OT DIIS     0.15E+00    0.6     0.00000011       -39.5159267339 -2.28E-11
     4 OT DIIS     0.15E+00    0.6     0.00000001       -39.5159267340 -3.65E-12

  *** SCF run converged in     4 steps ***


  Electronic density on regular grids:        -20.0000000000       -0.0000000000
  Core density on regular grids:               20.0000000000       -0.0000000000
  Total charge density on r-space grids:       -0.0000000000
  Total charge density g-space grids:          -0.0000000000

  Overlap energy of the core charge distribution:               0.00000000039020
  Self energy of the core charge distribution:                -99.31118463226406
  Core Hamiltonian energy:                                     28.07180821223323
  Hartree energy:                                              41.49530700951399
  Exchange-correlation energy:                                 -7.56438860003033
  Hartree-Fock Exchange energy:                                -2.20746872379575

  Total energy:                                               -39.51592673395271

  outer SCF iter =    3 RMS gradient =   0.14E-07 energy =        -39.5159267340
  outer SCF loop converged in   3 iterations or   24 steps


 ENERGY| Total FORCE_EVAL ( QS ) energy [a.u.]:              -39.515926733952710

 -------------------------------------------------------------------------------
 -                                                                             -
 -                                DBCSR STATISTICS                             -
 -                                                                             -
 -------------------------------------------------------------------------------
 COUNTER                                    TOTAL       BLAS       SMM       ACC
 flops    10 x    10 x    10               344000       0.0%    100.0%      0.0%
 flops    10 x    10 x    52              4118400       0.0%    100.0%      0.0%
 flops    52 x    10 x    10              5116800       0.0%    100.0%      0.0%
 flops    52 x    52 x    10             13520000       0.0%    100.0%      0.0%
 flops    52 x    10 x    52            105564160       0.0%    100.0%      0.0%
 flops inhomo. stacks                           0       0.0%      0.0%      0.0%
 flops total                       128.663360E+06       0.0%    100.0%      0.0%
 flops max/rank                     33.484640E+06       0.0%    100.0%      0.0%
 matmuls inhomo. stacks                         0       0.0%      0.0%      0.0%
 matmuls total                               3262       0.0%    100.0%      0.0%
 number of processed stacks                  3262       0.0%    100.0%      0.0%
 average stack size                                     0.0       1.0       0.0
 marketing flops                   136.899392E+06
 -------------------------------------------------------------------------------
 # multiplications                            544
 max memory usage/rank             386.306048E+06
 # max total images/rank                        1
 # max 3D layers                                1
 # MPI messages exchanged                  195840
 MPI messages size (bytes):
  total size                       254.013920E+06
  min size                           0.000000E+00
  max size                          21.632000E+03
  average size                       1.297048E+03
 MPI breakdown and total messages size (bytes):
             size <=      128              173885                        0
       128 < size <=     8192               12195                 42885600
      8192 < size <=    32768                9760                211128320
     32768 < size <=   131072                   0                        0
    131072 < size <=  4194304                   0                        0
   4194304 < size <= 16777216                   0                        0
  16777216 < size                               0                        0
 -------------------------------------------------------------------------------
 -                                                                             -
 -                      DBCSR MESSAGE PASSING PERFORMANCE                      -
 -                                                                             -
 -------------------------------------------------------------------------------
 ROUTINE             CALLS      AVE VOLUME [Bytes]
 MP_Bcast                6                     12.
 MP_Allreduce         2887                      8.
 MP_Alltoall          2316                   2751.
 MP_ISend            13044                   1359.
 MP_IRecv            13044                    969.
 -------------------------------------------------------------------------------

 -------------------------------------------------------------------------------
 -                                                                             -
 -                                GRID STATISTICS                              -
 -                                                                             -
 -------------------------------------------------------------------------------
 LP    KERNEL    OPERATION                                     COUNT     PERCENT
 0     general   collocate                                       144       0.21%
 2     ortho     integrate                                     14784      21.26%
 2     ortho     collocate                                     15400      22.15%
 3     ortho     integrate                                     15360      22.09%
 3     ortho     collocate                                     16000      23.01%
 4     ortho     integrate                                      3840       5.52%
 4     ortho     collocate                                      4000       5.75%
 -------------------------------------------------------------------------------

 MEMORY| Estimated peak process memory [MiB]                                 369

 -------------------------------------------------------------------------------
 -                                                                             -
 -                         MESSAGE PASSING PERFORMANCE                         -
 -                                                                             -
 -------------------------------------------------------------------------------

 ROUTINE             CALLS      AVE VOLUME [Bytes]
 MP_Group                5
 MP_Bcast              399                 233794.
 MP_Allreduce         1152                   1235.
 MP_Sync               153
 MP_Alltoall           478                6165956.
 MP_ISendRecv         5180                  29533.
 MP_Wait              9731
 MP_comm_split          26
 MP_ISend             4156                 166404.
 MP_IRecv             4156                 166404.
 MP_Recv                 8                   3328.
 -------------------------------------------------------------------------------


 -------------------------------------------------------------------------------
 -                                                                             -
 -                           R E F E R E N C E S                               -
 -                                                                             -
 -------------------------------------------------------------------------------
 
 CP2K version 8.0 (Development Version), the CP2K developers group (2020).
 CP2K is freely available from https://www.cp2k.org/ .

 Kuehne,Thomas D.; Iannuzzi,Marcella; Del Ben,Mauro;
 Rybkin,Vladimir V.; Seewald,Patrick; Stein,Frederick; Laino,Teodoro;
 Khaliullin,Rustam Z.; Schuett,Ole; Schiffmann,Florian; Golze,Dorothea;
 Wilhelm,Jan; Chulkov,Sergey; Bani-Hashemian,Mohammad Hossein;
 Weber,Valery; Borstnik,Urban; Taillefumier,Mathieu;
 Jakobovits,Alice Shoshana; Lazzaro,Alfio; Pabst,Hans; Mueller,Tiziano;
 Schade,Robert; Guidon,Manuel; Andermatt,Samuel; Holmberg,Nico;
 Schenter,Gregory K.; Hehn,Anna; Bussy,Augustin; Belleflamme,Fabian;
 Tabacchi,Gloria; Gloess,Andreas; Lass,Michael; Bethune,Iain;
 Mundy,Christopher J.; Plessl,Christian; Watkins,Matt;
 VandeVondele,Joost; Krack,Matthias; Hutter,Juerg. 
 The Journal of Chemical Physics, 152 (19), (2020). 
 CP2K: An electronic structure and molecular dynamics software package -
 Quickstep: Efficient and accurate electronic structure calculations.
 https://doi.org/10.1063/5.0007045

 Schuett, Ole; Messmer, Peter; Hutter, Juerg; VandeVondele, Joost. 
 Electronic Structure Calculations on Graphics Processing Units, John
 Wiley & Sons, Ltd, 173-190 (2016). 
 GPU-Accelerated Sparse Matrix-Matrix Multiplication for
 Linear Scaling Density Functional Theory.
 https://doi.org/10.1002/9781118670712.ch8

 Borstnik, U; VandeVondele, J; Weber, V; Hutter, J. 
 PARALLEL COMPUTING, 40 (5-6), 47-58 (2014). 
 Sparse matrix multiplication: The distributed block-compressed sparse
 row library.
 https://doi.org/10.1016/j.parco.2014.03.012

 Hutter, J; Iannuzzi, M; Schiffmann, F; VandeVondele, J. 
 WIREs Comput Mol Sci., 4 (1), 15-25 (2014). 
 CP2K: atomistic simulations of condensed matter systems.
 https://doi.org/10.1002/wcms.1159

 Marek, A; Blum, V; Johanni, R; Havu, V; Lang, B; Auckenthaler, T;
 Heinecke, A; Bungartz, H; Lederer, H. 
 Journal of Physics: Condensed Matter, 26 (21), (2014). 
 The ELPA library: scalable parallel eigenvalue solutions for
 electronic structure
 theory and computational science.
 https://doi.org/10.1088/0953-8984/26/21/213201

 Guidon, M; Hutter, J; VandeVondele, J. 
 JOURNAL OF CHEMICAL THEORY AND COMPUTATION, 5 (11), 3010-3021 (2009). 
 Robust Periodic Hartree-Fock Exchange for Large-Scale Simulations Using
 Gaussian Basis Sets.
 https://doi.org/10.1021/ct900494g

 Guidon, M; Schiffmann, F; Hutter, J; VandeVondele, J. 
 JOURNAL OF CHEMICAL PHYSICS, 128 (21), 214104 (2008). 
 Ab initio molecular dynamics using hybrid density functionals.
 https://doi.org/10.1063/1.2931945

 Krack, M. 
 THEORETICAL CHEMISTRY ACCOUNTS, 114 (1-3), 145-152 (2005). 
 Pseudopotentials for H to Kr optimized for gradient-corrected
 exchange-correlation functionals.
 https://doi.org/10.1007/s00214-005-0655-y

 VandeVondele, J; Krack, M; Mohamed, F; Parrinello, M; Chassaing, T;
 Hutter, J. COMPUTER PHYSICS COMMUNICATIONS, 167 (2), 103-128 (2005). 
 QUICKSTEP: Fast and accurate density functional calculations using a
 mixed Gaussian and plane waves approach.
 https://doi.org/10.1016/j.cpc.2004.12.014

 Frigo, M; Johnson, SG. 
 PROCEEDINGS OF THE IEEE, 93 (2), 216-231 (2005). 
 The design and implementation of FFTW3.
 https://doi.org/10.1109/JPROC.2004.840301

 VandeVondele, J; Hutter, J. 
 JOURNAL OF CHEMICAL PHYSICS, 118 (10), 4365-4369 (2003). 
 An efficient orbital transformation method for electronic structure
 calculations.
 https://doi.org/10.1063/1.1543154

 Martyna, GJ; Tuckerman, ME. 
 JOURNAL OF CHEMICAL PHYSICS, 110 (6), 2810-2821 (1999). 
 A reciprocal space based method for treating long range interactions in
 ab initio and force-field-based calculations in clusters.
 https://doi.org/10.1063/1.477923

 Hartwigsen, C; Goedecker, S; Hutter, J. 
 PHYSICAL REVIEW B, 58 (7), 3641-3662 (1998). 
 Relativistic separable dual-space Gaussian pseudopotentials from H to Rn.
 https://doi.org/10.1103/PhysRevB.58.3641

 Lippert, G; Hutter, J; Parrinello, M. 
 MOLECULAR PHYSICS, 92 (3), 477-487 (1997). 
 A hybrid Gaussian and plane wave density functional scheme.
 https://doi.org/10.1080/002689797170220

 Perdew, JP; Burke, K; Ernzerhof, M. 
 PHYSICAL REVIEW LETTERS, 77 (18), 3865-3868 (1996). 
 Generalized gradient approximation made simple.
 https://doi.org/10.1103/PhysRevLett.77.3865

 Goedecker, S; Teter, M; Hutter, J. 
 PHYSICAL REVIEW B, 54 (3), 1703-1710 (1996). 
 Separable dual-space Gaussian pseudopotentials.
 https://doi.org/10.1103/PhysRevB.54.1703


 -------------------------------------------------------------------------------
 -                                                                             -
 -                                T I M I N G                                  -
 -                                                                             -
 -------------------------------------------------------------------------------
 SUBROUTINE                       CALLS  ASD         SELF TIME        TOTAL TIME
                                MAXIMUM       AVERAGE  MAXIMUM  AVERAGE  MAXIMUM
 CP2K                                 1  1.0    0.009    0.014   15.674   15.676
 qs_energies                          1  2.0    0.000    0.000   15.448   15.451
 scf_env_do_scf                       1  3.0    0.000    0.000   15.262   15.265
 scf_env_do_scf_inner_loop           24  4.0    0.001    0.002   12.555   12.557
 qs_ks_update_qs_env                 27  5.0    0.000    0.000   12.077   12.080
 rebuild_ks_matrix                   24  6.0    0.000    0.000   12.075   12.078
 qs_ks_build_kohn_sham_matrix        24  7.0    0.004    0.004   12.075   12.078
 pw_transfer                        463  9.6    0.041    0.053    5.953    6.826
 fft_wrap_pw1pw2                    415 10.7    0.005    0.007    5.866    6.743
 fft_wrap_pw1pw2_300                267 11.8    0.299    0.362    5.558    6.405
 fft3d_ps                           415 12.7    2.077    2.240    4.721    5.768
 qs_vxc_create                       24  8.0    0.001    0.001    5.411    5.429
 xc_vxc_pw_create                    24  9.0    0.042    0.044    5.411    5.429
 hfx_ks_matrix                       24  8.0    0.001    0.001    3.815    3.816
 integrate_four_center               24  9.0    0.010    0.011    3.813    3.814
 xc_rho_set_and_dset_create          24 10.0    0.022    0.027    2.963    3.387
 mp_alltoall_z22v                   415 14.7    2.148    3.324    2.148    3.324
 integrate_four_center_main          24 10.0    0.003    0.005    2.272    3.039
 integrate_four_center_bin         3024 11.0    2.269    3.037    2.269    3.037
 qs_rho_update_rho                   25  5.0    0.000    0.000    2.727    2.727
 calculate_rho_elec                  25  6.0    0.018    0.020    2.727    2.727
 init_scf_loop                        3  4.0    0.000    0.000    2.707    2.707
 yz_to_x                            198 13.1    0.202    0.250    1.478    2.453
 density_rs2pw                       25  7.0    0.001    0.002    2.147    2.283
 rs_pw_transfer                     197  9.5    0.004    0.005    1.963    2.106
 sum_up_and_integrate                24  8.0    0.009    0.012    2.001    2.001
 integrate_v_rspace_low              24  9.0    0.073    0.423    1.991    1.993
 xc_functional_eval                  24 11.0    0.000    0.000    1.348    1.772
 pbe_lda_eval                        24 12.0    1.347    1.772    1.347    1.772
 mp_sync                            153 10.9    0.865    1.691    0.865    1.691
 potential_pw2rs                     24 10.0    0.002    0.002    1.557    1.560
 x_to_yz                            217 14.2    0.281    0.316    1.153    1.308
 mp_waitany                        4156 11.4    0.814    1.081    0.814    1.081
 rs_pw_transfer_RS2PW_300            26  8.9    0.261    0.399    0.776    0.927
 grid_collocate_task_list            25  7.0    0.341    0.892    0.341    0.892
 rs_pw_transfer_PW2RS_300            24 12.0    0.307    0.386    0.535    0.618
 pw_gather_p                        198 12.1    0.393    0.508    0.393    0.508
 mp_alltoall_d11v                   625 11.5    0.418    0.505    0.418    0.505
 pw_scatter_p                       217 13.2    0.430    0.494    0.430    0.494
 qs_scf_new_mos                      24  5.0    0.000    0.000    0.446    0.448
 qs_scf_loop_do_ot                   24  6.0    0.000    0.000    0.446    0.447
 rs_distribute_matrix                24 10.0    0.000    0.001    0.359    0.433
 ot_scf_mini                         24  7.0    0.000    0.000    0.428    0.430
 dbcsr_multiply_generic             544 10.0    0.014    0.015    0.394    0.397
 mp_waitall_1                     40391 13.8    0.267    0.372    0.267    0.372
 calc_screening_functions             1 10.0    0.172    0.174    0.349    0.353
 rs_pw_transfer_PW2RS_100            24 12.0    0.087    0.110    0.264    0.345
 -------------------------------------------------------------------------------

 The number of warnings for this run is : 0
 
 -------------------------------------------------------------------------------
  **** **** ******  **  PROGRAM ENDED AT                 2020-11-30 13:28:02.399
 ***** ** ***  *** **   PROGRAM RAN ON                                   tcopt10
 **    ****   ******    PROGRAM RAN BY                                    hutter
 ***** **    ** ** **   PROGRAM PROCESS ID                                 88572
  **** **  *******  **  PROGRAM STOPPED IN /data/hutter/GITHUB/BASIS/MOLOPT/PBE0
                                           /hbcnof
