 DBCSR| CPU Multiplication driver                                           XSMM
 DBCSR| Multrec recursion limit                                              512
 DBCSR| Multiplication stack size                                           1000
 DBCSR| Maximum elements for images                                    UNLIMITED
 DBCSR| Multiplicative factor virtual images                                   1
 DBCSR| Use multiplication densification                                       T
 DBCSR| Multiplication size stacks                                             3
 DBCSR| Use memory pool for CPU allocation                                     F
 DBCSR| Number of 3D layers                                               SINGLE
 DBCSR| Use MPI memory allocation                                              F
 DBCSR| Use RMA algorithm                                                      F
 DBCSR| Use Communication thread                                               T
 DBCSR| Communication thread load                                             87
 DBCSR| Split modifier for TAS multiplication algorithm                  1.0E+00


  **** **** ******  **  PROGRAM STARTED AT               2020-11-30 12:54:03.628
 ***** ** ***  *** **   PROGRAM STARTED ON                               tcopt10
 **    ****   ******    PROGRAM STARTED BY                                hutter
 ***** **    ** ** **   PROGRAM PROCESS ID                                 81921
  **** **  *******  **  PROGRAM STARTED IN /data/hutter/GITHUB/BASIS/MOLOPT/PBE0
                                           /hbcnof

 CP2K| version string:                    CP2K version 8.0 (Development Version)
 CP2K| source code revision number:                                  git:afc71fa
 CP2K| cp2kflags: omp libint fftw3 libxc elpa parallel mpi3 scalapack xsmm spgli
 CP2K|            b sirius
 CP2K| is freely available from                            https://www.cp2k.org/
 CP2K| Program compiled at                          Tue Nov 17 10:27:14 CET 2020
 CP2K| Program compiled on                                               tcopt10
 CP2K| Program compiled for                                                local
 CP2K| Data directory path                 /data/hutter/GITHUB/CURRENT/cp2k/data
 CP2K| Input file name                                              NH4F-ref.inp

 GLOBAL| Force Environment number                                              1
 GLOBAL| Basis set file name                                  ../PBE0_UCSEGBASIS
 GLOBAL| Potential file name                                        ../POTENTIAL
 GLOBAL| MM Potential file name                                     MM_POTENTIAL
 GLOBAL| Coordinate file name                                      __STD_INPUT__
 GLOBAL| Method name                                                        CP2K
 GLOBAL| Project name                                                    refNH4F
 GLOBAL| Preferred FFT library                                             FFTW3
 GLOBAL| Preferred diagonalization lib.                                     ELPA
 GLOBAL| Run type                                                         ENERGY
 GLOBAL| All-to-all communication in single precision                          F
 GLOBAL| FFTs using library dependent lengths                                  F
 GLOBAL| Global print level                                                  LOW
 GLOBAL| MPI I/O enabled                                                       T
 GLOBAL| Total number of message passing processes                            36
 GLOBAL| Number of threads for this process                                    1
 GLOBAL| This output is from process                                           0
 GLOBAL| CPU model name                          AMD EPYC 7401 24-Core Processor
 GLOBAL| CPUID                                                              1002

 MEMORY| system memory details [Kb]
 MEMORY|                        rank 0           min           max       average
 MEMORY| MemTotal            263987256     263987256     263987256     263987256
 MEMORY| MemFree             242276972     242276972     242276972     242276972
 MEMORY| Buffers                   148           148           148           148
 MEMORY| Cached               17819472      17819472      17819472      17819472
 MEMORY| Slab                   934324        934324        934324        934324
 MEMORY| SReclaimable           419384        419384        419384        419384
 MEMORY| MemLikelyFree       260515976     260515976     260515976     260515976


 GENERATE|  Preliminary Number of Bonds generated:                             3
 GENERATE|  Achieved consistency in connectivity generation.
 GENERATE|  Number of Bonds generated:                                         3
 GENERATE|  Preliminary Number of Bends generated:                             3
 GENERATE|  Number of Bends generated:                                         3
 GENERATE|  Number of UB generated:                                            3
 GENERATE|  Preliminary Number of Torsions generated:                          0
 GENERATE|  Number of Impropers generated:                                     1

 *******************************************************************************
 *******************************************************************************
 **                                                                           **
 **     #####                         ##              ##                      **
 **    ##   ##            ##          ##              ##                      **
 **   ##     ##                       ##            ######                    **
 **   ##     ##  ##   ##  ##   #####  ##  ##   ####   ##    #####    #####    **
 **   ##     ##  ##   ##  ##  ##      ## ##   ##      ##   ##   ##  ##   ##   **
 **   ##  ## ##  ##   ##  ##  ##      ####     ###    ##   ######   ######    **
 **    ##  ###   ##   ##  ##  ##      ## ##      ##   ##   ##       ##        **
 **     #######   #####   ##   #####  ##  ##  ####    ##    #####   ##        **
 **           ##                                                    ##        **
 **                                                                           **
 **                                                ... make the atoms dance   **
 **                                                                           **
 **            Copyright (C) by CP2K developers group (2000 - 2020)           **
 **                      J. Chem. Phys. 152, 194103 (2020)                    **
 **                                                                           **
 *******************************************************************************


 TOTAL NUMBERS AND MAXIMUM NUMBERS

  Total number of            - Atomic kinds:                                   3
                             - Atoms:                                          6
                             - Shell sets:                                    72
                             - Shells:                                       120
                             - Primitive Cartesian functions:                 72
                             - Cartesian basis functions:                    448
                             - Spherical basis functions:                    376

  Maximum angular momentum of- Orbital basis functions:                        3
                             - Local part of the GTH pseudopotential:          2
                             - Non-local part of the GTH pseudopotential:      0


 SCF PARAMETERS         Density guess:                                    ATOMIC
                        --------------------------------------------------------
                        max_scf:                                              10
                        max_scf_history:                                       0
                        max_diis:                                              4
                        --------------------------------------------------------
                        eps_scf:                                        1.00E-07
                        eps_scf_history:                                0.00E+00
                        eps_diis:                                       1.00E-01
                        eps_eigval:                                     1.00E-05
                        --------------------------------------------------------
                        level_shift [a.u.]:                                 0.00
                        --------------------------------------------------------
                        Outer loop SCF in use 
                        No variables optimised in outer loop
                        eps_scf                                         1.00E-07
                        max_scf                                               10
                        No outer loop optimization
                        step_size                                       5.00E-01

 Number of electrons:                                                         16
 Number of occupied orbitals:                                                  8
 Number of molecular orbitals:                                                 8

 Number of orbital functions:                                                376
 Number of independent orbital functions:                                    376

 Extrapolation method: initial_guess


 SCF WAVEFUNCTION OPTIMIZATION

  ----------------------------------- OT ---------------------------------------
  Minimizer      : DIIS                : direct inversion
                                         in the iterative subspace
                                         using   7 DIIS vectors
                                         safer DIIS on
  Preconditioner : FULL_ALL            : diagonalization, state selective
  Precond_solver : DEFAULT
  stepsize       :    0.15000000                  energy_gap     :    0.08000000
  eps_taylor     :   0.10000E-15                  max_taylor     :             4
  ----------------------------------- OT ---------------------------------------

  Step     Update method      Time    Convergence         Total energy    Change
  ------------------------------------------------------------------------------
     1 OT DIIS     0.15E+00   13.5     0.09810824       -35.2252268068 -3.52E+01
     2 OT DIIS     0.15E+00    1.2     0.06357163       -35.7940990762 -5.69E-01
     3 OT DIIS     0.15E+00    1.1     0.02454396       -36.4308760705 -6.37E-01
     4 OT DIIS     0.15E+00    1.1     0.01297319       -36.5312534215 -1.00E-01
     5 OT DIIS     0.15E+00    1.1     0.00468233       -36.5758518138 -4.46E-02
     6 OT DIIS     0.15E+00    1.1     0.00461715       -36.5783621992 -2.51E-03
     7 OT DIIS     0.15E+00    1.1     0.00146857       -36.5808652708 -2.50E-03
     8 OT DIIS     0.15E+00    1.1     0.00086865       -36.5814975605 -6.32E-04
     9 OT DIIS     0.15E+00    1.1     0.00059131       -36.5817174161 -2.20E-04
    10 OT DIIS     0.15E+00    1.2     0.00023071       -36.5818014575 -8.40E-05

  Leaving inner SCF loop after reaching    10 steps.


  Electronic density on regular grids:        -15.9999999917        0.0000000083
  Core density on regular grids:               16.0000000000       -0.0000000000
  Total charge density on r-space grids:        0.0000000083
  Total charge density g-space grids:           0.0000000083

  Overlap energy of the core charge distribution:               0.00000017233367
  Self energy of the core charge distribution:                -96.05054776097302
  Core Hamiltonian energy:                                     27.51890485147460
  Hartree energy:                                              40.58810006937755
  Exchange-correlation energy:                                 -6.62886053583417
  Hartree-Fock Exchange energy:                                -2.00939825384695

  Total energy:                                               -36.58180145746832

  outer SCF iter =    1 RMS gradient =   0.23E-03 energy =        -36.5818014575

  ----------------------------------- OT ---------------------------------------
  Minimizer      : DIIS                : direct inversion
                                         in the iterative subspace
                                         using   7 DIIS vectors
                                         safer DIIS on
  Preconditioner : FULL_ALL            : diagonalization, state selective
  Precond_solver : DEFAULT
  stepsize       :    0.15000000                  energy_gap     :    0.08000000
  eps_taylor     :   0.10000E-15                  max_taylor     :             4
  ----------------------------------- OT ---------------------------------------

  Step     Update method      Time    Convergence         Total energy    Change
  ------------------------------------------------------------------------------
     1 OT DIIS     0.15E+00    2.3     0.00015795       -36.5818219414 -2.05E-05
     2 OT DIIS     0.15E+00    1.1     0.00007088       -36.5818299834 -8.04E-06
     3 OT DIIS     0.15E+00    1.1     0.00001578       -36.5818319813 -2.00E-06
     4 OT DIIS     0.15E+00    1.1     0.00000199       -36.5818320313 -5.00E-08
     5 OT DIIS     0.15E+00    1.1     0.00000067       -36.5818320325 -1.24E-09
     6 OT DIIS     0.15E+00    1.1     0.00000021       -36.5818320327 -1.33E-10
     7 OT DIIS     0.15E+00    1.1     0.00000004       -36.5818320327 -1.56E-11

  *** SCF run converged in     7 steps ***


  Electronic density on regular grids:        -15.9999999917        0.0000000083
  Core density on regular grids:               16.0000000000       -0.0000000000
  Total charge density on r-space grids:        0.0000000083
  Total charge density g-space grids:           0.0000000083

  Overlap energy of the core charge distribution:               0.00000017233367
  Self energy of the core charge distribution:                -96.05054776097302
  Core Hamiltonian energy:                                     27.51404838012774
  Hartree energy:                                              40.59175721292502
  Exchange-correlation energy:                                 -6.62801245911243
  Hartree-Fock Exchange energy:                                -2.00907757797668

  Total energy:                                               -36.58183203267569

  outer SCF iter =    2 RMS gradient =   0.36E-07 energy =        -36.5818320327
  outer SCF loop converged in   2 iterations or   17 steps


 ENERGY| Total FORCE_EVAL ( QS ) energy [a.u.]:              -36.581832032675692

 -------------------------------------------------------------------------------
 -                                                                             -
 -                                DBCSR STATISTICS                             -
 -                                                                             -
 -------------------------------------------------------------------------------
 COUNTER                                    TOTAL       BLAS       SMM       ACC
 flops     8 x     8 x     8               124928       0.0%    100.0%      0.0%
 flops     8 x     8 x    52               931840       0.0%    100.0%      0.0%
 flops    52 x     8 x     8              1158144       0.0%    100.0%      0.0%
 flops    52 x    52 x     8              2336256       0.0%    100.0%      0.0%
 flops     8 x     8 x    68              2437120       0.0%    100.0%      0.0%
 flops    68 x     8 x     8              3028992       0.0%    100.0%      0.0%
 flops    52 x    68 x     8              4073472       0.0%    100.0%      0.0%
 flops    68 x    52 x     8              4073472       0.0%    100.0%      0.0%
 flops    68 x    68 x     8             13317120       0.0%    100.0%      0.0%
 flops    52 x     8 x    52             14882816       0.0%    100.0%      0.0%
 flops    68 x     8 x    52             38924288       0.0%    100.0%      0.0%
 flops    52 x     8 x    68             38924288       0.0%    100.0%      0.0%
 flops    68 x     8 x    68            101801984       0.0%    100.0%      0.0%
 flops inhomo. stacks                           0       0.0%      0.0%      0.0%
 flops total                       226.014720E+06       0.0%    100.0%      0.0%
 flops max/rank                     40.764416E+06       0.0%    100.0%      0.0%
 matmuls inhomo. stacks                         0       0.0%      0.0%      0.0%
 matmuls total                               4538       0.0%    100.0%      0.0%
 number of processed stacks                  4538       0.0%    100.0%      0.0%
 average stack size                                     0.0       1.0       0.0
 marketing flops                   243.027872E+06
 -------------------------------------------------------------------------------
 # multiplications                            385
 max memory usage/rank             941.588480E+06
 # max total images/rank                        1
 # max 3D layers                                1
 # MPI messages exchanged                  138600
 MPI messages size (bytes):
  total size                       529.172480E+06
  min size                           0.000000E+00
  max size                          36.992000E+03
  average size                       3.817983E+03
 MPI breakdown and total messages size (bytes):
             size <=      128              110995                        0
       128 < size <=     8192               12125                 42839040
      8192 < size <=    32768                8600                231828480
     32768 < size <=   131072                6880                254504960
    131072 < size <=  4194304                   0                        0
   4194304 < size <= 16777216                   0                        0
  16777216 < size                               0                        0
 -------------------------------------------------------------------------------
 -                                                                             -
 -                      DBCSR MESSAGE PASSING PERFORMANCE                      -
 -                                                                             -
 -------------------------------------------------------------------------------
 ROUTINE             CALLS      AVE VOLUME [Bytes]
 MP_Bcast               14                     12.
 MP_Allreduce         2069                      8.
 MP_Alltoall          1580                   2906.
 MP_ISend             9232                   2284.
 MP_IRecv             9232                   2100.
 -------------------------------------------------------------------------------

 -------------------------------------------------------------------------------
 -                                                                             -
 -                                GRID STATISTICS                              -
 -                                                                             -
 -------------------------------------------------------------------------------
 LP    KERNEL    OPERATION                                     COUNT     PERCENT
 0     general   collocate                                       216       0.21%
 0     ortho     integrate                                     10319      10.19%
 0     ortho     collocate                                     10926      10.79%
 1     ortho     integrate                                      7701       7.61%
 1     ortho     collocate                                      8154       8.05%
 2     ortho     integrate                                      7089       7.00%
 2     ortho     collocate                                      7506       7.41%
 3     ortho     integrate                                     14025      13.85%
 3     ortho     collocate                                     14850      14.67%
 4     ortho     integrate                                      5049       4.99%
 4     ortho     collocate                                      5346       5.28%
 5     ortho     integrate                                      2176       2.15%
 5     ortho     collocate                                      2304       2.28%
 6     ortho     integrate                                      2720       2.69%
 6     ortho     collocate                                      2880       2.84%
 -------------------------------------------------------------------------------

 MEMORY| Estimated peak process memory [MiB]                                 899

 -------------------------------------------------------------------------------
 -                                                                             -
 -                         MESSAGE PASSING PERFORMANCE                         -
 -                                                                             -
 -------------------------------------------------------------------------------

 ROUTINE             CALLS      AVE VOLUME [Bytes]
 MP_Group                5
 MP_Bcast              276                1011905.
 MP_Allreduce          766                   1830.
 MP_Sync               106
 MP_Alltoall           343                6139722.
 MP_ISendRecv         4935                  95294.
 MP_Wait              6483
 MP_comm_split          14
 MP_ISend             1440                 254016.
 MP_IRecv             1440                 254016.
 MP_Recv                 3                   6016.
 -------------------------------------------------------------------------------


 -------------------------------------------------------------------------------
 -                                                                             -
 -                           R E F E R E N C E S                               -
 -                                                                             -
 -------------------------------------------------------------------------------
 
 CP2K version 8.0 (Development Version), the CP2K developers group (2020).
 CP2K is freely available from https://www.cp2k.org/ .

 Kuehne,Thomas D.; Iannuzzi,Marcella; Del Ben,Mauro;
 Rybkin,Vladimir V.; Seewald,Patrick; Stein,Frederick; Laino,Teodoro;
 Khaliullin,Rustam Z.; Schuett,Ole; Schiffmann,Florian; Golze,Dorothea;
 Wilhelm,Jan; Chulkov,Sergey; Bani-Hashemian,Mohammad Hossein;
 Weber,Valery; Borstnik,Urban; Taillefumier,Mathieu;
 Jakobovits,Alice Shoshana; Lazzaro,Alfio; Pabst,Hans; Mueller,Tiziano;
 Schade,Robert; Guidon,Manuel; Andermatt,Samuel; Holmberg,Nico;
 Schenter,Gregory K.; Hehn,Anna; Bussy,Augustin; Belleflamme,Fabian;
 Tabacchi,Gloria; Gloess,Andreas; Lass,Michael; Bethune,Iain;
 Mundy,Christopher J.; Plessl,Christian; Watkins,Matt;
 VandeVondele,Joost; Krack,Matthias; Hutter,Juerg. 
 The Journal of Chemical Physics, 152 (19), (2020). 
 CP2K: An electronic structure and molecular dynamics software package -
 Quickstep: Efficient and accurate electronic structure calculations.
 https://doi.org/10.1063/5.0007045

 Schuett, Ole; Messmer, Peter; Hutter, Juerg; VandeVondele, Joost. 
 Electronic Structure Calculations on Graphics Processing Units, John
 Wiley & Sons, Ltd, 173-190 (2016). 
 GPU-Accelerated Sparse Matrix-Matrix Multiplication for
 Linear Scaling Density Functional Theory.
 https://doi.org/10.1002/9781118670712.ch8

 Borstnik, U; VandeVondele, J; Weber, V; Hutter, J. 
 PARALLEL COMPUTING, 40 (5-6), 47-58 (2014). 
 Sparse matrix multiplication: The distributed block-compressed sparse
 row library.
 https://doi.org/10.1016/j.parco.2014.03.012

 Hutter, J; Iannuzzi, M; Schiffmann, F; VandeVondele, J. 
 WIREs Comput Mol Sci., 4 (1), 15-25 (2014). 
 CP2K: atomistic simulations of condensed matter systems.
 https://doi.org/10.1002/wcms.1159

 Marek, A; Blum, V; Johanni, R; Havu, V; Lang, B; Auckenthaler, T;
 Heinecke, A; Bungartz, H; Lederer, H. 
 Journal of Physics: Condensed Matter, 26 (21), (2014). 
 The ELPA library: scalable parallel eigenvalue solutions for
 electronic structure
 theory and computational science.
 https://doi.org/10.1088/0953-8984/26/21/213201

 Guidon, M; Hutter, J; VandeVondele, J. 
 JOURNAL OF CHEMICAL THEORY AND COMPUTATION, 5 (11), 3010-3021 (2009). 
 Robust Periodic Hartree-Fock Exchange for Large-Scale Simulations Using
 Gaussian Basis Sets.
 https://doi.org/10.1021/ct900494g

 Guidon, M; Schiffmann, F; Hutter, J; VandeVondele, J. 
 JOURNAL OF CHEMICAL PHYSICS, 128 (21), 214104 (2008). 
 Ab initio molecular dynamics using hybrid density functionals.
 https://doi.org/10.1063/1.2931945

 Krack, M. 
 THEORETICAL CHEMISTRY ACCOUNTS, 114 (1-3), 145-152 (2005). 
 Pseudopotentials for H to Kr optimized for gradient-corrected
 exchange-correlation functionals.
 https://doi.org/10.1007/s00214-005-0655-y

 VandeVondele, J; Krack, M; Mohamed, F; Parrinello, M; Chassaing, T;
 Hutter, J. COMPUTER PHYSICS COMMUNICATIONS, 167 (2), 103-128 (2005). 
 QUICKSTEP: Fast and accurate density functional calculations using a
 mixed Gaussian and plane waves approach.
 https://doi.org/10.1016/j.cpc.2004.12.014

 Frigo, M; Johnson, SG. 
 PROCEEDINGS OF THE IEEE, 93 (2), 216-231 (2005). 
 The design and implementation of FFTW3.
 https://doi.org/10.1109/JPROC.2004.840301

 VandeVondele, J; Hutter, J. 
 JOURNAL OF CHEMICAL PHYSICS, 118 (10), 4365-4369 (2003). 
 An efficient orbital transformation method for electronic structure
 calculations.
 https://doi.org/10.1063/1.1543154

 Martyna, GJ; Tuckerman, ME. 
 JOURNAL OF CHEMICAL PHYSICS, 110 (6), 2810-2821 (1999). 
 A reciprocal space based method for treating long range interactions in
 ab initio and force-field-based calculations in clusters.
 https://doi.org/10.1063/1.477923

 Hartwigsen, C; Goedecker, S; Hutter, J. 
 PHYSICAL REVIEW B, 58 (7), 3641-3662 (1998). 
 Relativistic separable dual-space Gaussian pseudopotentials from H to Rn.
 https://doi.org/10.1103/PhysRevB.58.3641

 Lippert, G; Hutter, J; Parrinello, M. 
 MOLECULAR PHYSICS, 92 (3), 477-487 (1997). 
 A hybrid Gaussian and plane wave density functional scheme.
 https://doi.org/10.1080/002689797170220

 Perdew, JP; Burke, K; Ernzerhof, M. 
 PHYSICAL REVIEW LETTERS, 77 (18), 3865-3868 (1996). 
 Generalized gradient approximation made simple.
 https://doi.org/10.1103/PhysRevLett.77.3865

 Goedecker, S; Teter, M; Hutter, J. 
 PHYSICAL REVIEW B, 54 (3), 1703-1710 (1996). 
 Separable dual-space Gaussian pseudopotentials.
 https://doi.org/10.1103/PhysRevB.54.1703


 -------------------------------------------------------------------------------
 -                                                                             -
 -                                T I M I N G                                  -
 -                                                                             -
 -------------------------------------------------------------------------------
 SUBROUTINE                       CALLS  ASD         SELF TIME        TOTAL TIME
                                MAXIMUM       AVERAGE  MAXIMUM  AVERAGE  MAXIMUM
 CP2K                                 1  1.0    0.063    0.080   32.262   32.266
 qs_energies                          1  2.0    0.000    0.000   31.933   31.938
 scf_env_do_scf                       1  3.0    0.000    0.000   31.731   31.736
 qs_ks_update_qs_env                 19  5.0    0.000    0.000   29.317   29.321
 rebuild_ks_matrix                   17  6.0    0.000    0.000   29.315   29.320
 qs_ks_build_kohn_sham_matrix        17  7.0    0.003    0.003   29.315   29.320
 hfx_ks_matrix                       17  8.0    0.001    0.001   23.200   23.204
 integrate_four_center               17  9.0    0.011    0.012   23.199   23.202
 scf_env_do_scf_inner_loop           17  4.0    0.001    0.002   17.241   17.243
 integrate_four_center_main          17 10.0    0.003    0.004   13.564   16.149
 integrate_four_center_bin         2074 11.0   13.561   16.147   13.561   16.147
 init_scf_loop                        2  4.0    0.000    0.000   14.490   14.492
 pw_transfer                        330  9.6    0.029    0.035    4.321    5.080
 fft_wrap_pw1pw2                    296 10.7    0.004    0.005    4.259    5.022
 mp_sync                            106 10.8    2.729    4.938    2.729    4.938
 fft_wrap_pw1pw2_300                190 11.8    0.210    0.250    3.993    4.736
 calc_screening_functions             1 10.0    3.246    3.264    4.678    4.701
 fft3d_ps                           296 12.7    1.479    1.567    3.449    4.319
 qs_vxc_create                       17  8.0    0.000    0.001    3.828    3.838
 xc_vxc_pw_create                    17  9.0    0.030    0.032    3.827    3.838
 mp_alltoall_z22v                   296 14.7    1.613    2.570    1.613    2.570
 xc_rho_set_and_dset_create          17 10.0    0.016    0.020    2.044    2.395
 qs_rho_update_rho                   18  5.0    0.000    0.000    2.094    2.094
 calculate_rho_elec                  18  6.0    0.013    0.013    2.093    2.094
 yz_to_x                            142 13.1    0.147    0.173    1.145    1.972
 calc_pair_dist_radii                 1 10.0    1.495    1.504    1.937    1.948
 powell_optimize                 700589 11.0    1.874    1.900    1.874    1.900
 rs_pw_transfer                     141  9.4    0.003    0.004    1.531    1.656
 sum_up_and_integrate                17  8.0    0.007    0.008    1.648    1.649
 integrate_v_rspace_low              17  9.0    0.122    0.346    1.641    1.643
 density_rs2pw                       18  7.0    0.001    0.001    1.496    1.629
 potential_pw2rs                     17 10.0    0.001    0.002    1.285    1.287
 xc_functional_eval                  17 11.0    0.000    0.000    0.898    1.250
 pbe_lda_eval                        17 12.0    0.898    1.249    0.898    1.249
 x_to_yz                            154 14.2    0.200    0.229    0.815    0.920
 mp_waitall_1                     29683 13.7    0.567    0.743    0.567    0.743
 -------------------------------------------------------------------------------

 The number of warnings for this run is : 0
 
 -------------------------------------------------------------------------------
  **** **** ******  **  PROGRAM ENDED AT                 2020-11-30 12:54:36.624
 ***** ** ***  *** **   PROGRAM RAN ON                                   tcopt10
 **    ****   ******    PROGRAM RAN BY                                    hutter
 ***** **    ** ** **   PROGRAM PROCESS ID                                 81921
  **** **  *******  **  PROGRAM STOPPED IN /data/hutter/GITHUB/BASIS/MOLOPT/PBE0
                                           /hbcnof
