 DBCSR| CPU Multiplication driver                                           XSMM
 DBCSR| Multrec recursion limit                                              512
 DBCSR| Multiplication stack size                                           1000
 DBCSR| Maximum elements for images                                    UNLIMITED
 DBCSR| Multiplicative factor virtual images                                   1
 DBCSR| Use multiplication densification                                       T
 DBCSR| Multiplication size stacks                                             3
 DBCSR| Use memory pool for CPU allocation                                     F
 DBCSR| Number of 3D layers                                               SINGLE
 DBCSR| Use MPI memory allocation                                              F
 DBCSR| Use RMA algorithm                                                      F
 DBCSR| Use Communication thread                                               T
 DBCSR| Communication thread load                                             87
 DBCSR| Split modifier for TAS multiplication algorithm                  1.0E+00


  **** **** ******  **  PROGRAM STARTED AT               2020-11-30 12:57:28.271
 ***** ** ***  *** **   PROGRAM STARTED ON                               tcopt10
 **    ****   ******    PROGRAM STARTED BY                                hutter
 ***** **    ** ** **   PROGRAM PROCESS ID                                 82784
  **** **  *******  **  PROGRAM STARTED IN /data/hutter/GITHUB/BASIS/MOLOPT/PBE0
                                           /hbcnof

 CP2K| version string:                    CP2K version 8.0 (Development Version)
 CP2K| source code revision number:                                  git:afc71fa
 CP2K| cp2kflags: omp libint fftw3 libxc elpa parallel mpi3 scalapack xsmm spgli
 CP2K|            b sirius
 CP2K| is freely available from                            https://www.cp2k.org/
 CP2K| Program compiled at                          Tue Nov 17 10:27:14 CET 2020
 CP2K| Program compiled on                                               tcopt10
 CP2K| Program compiled for                                                local
 CP2K| Data directory path                 /data/hutter/GITHUB/CURRENT/cp2k/data
 CP2K| Input file name                                               OF2-ref.inp

 GLOBAL| Force Environment number                                              1
 GLOBAL| Basis set file name                                  ../PBE0_UCSEGBASIS
 GLOBAL| Potential file name                                        ../POTENTIAL
 GLOBAL| MM Potential file name                                     MM_POTENTIAL
 GLOBAL| Coordinate file name                                      __STD_INPUT__
 GLOBAL| Method name                                                        CP2K
 GLOBAL| Project name                                                     refOF2
 GLOBAL| Preferred FFT library                                             FFTW3
 GLOBAL| Preferred diagonalization lib.                                     ELPA
 GLOBAL| Run type                                                         ENERGY
 GLOBAL| All-to-all communication in single precision                          F
 GLOBAL| FFTs using library dependent lengths                                  F
 GLOBAL| Global print level                                                  LOW
 GLOBAL| MPI I/O enabled                                                       T
 GLOBAL| Total number of message passing processes                            36
 GLOBAL| Number of threads for this process                                    1
 GLOBAL| This output is from process                                           0
 GLOBAL| CPU model name                          AMD EPYC 7401 24-Core Processor
 GLOBAL| CPUID                                                              1002

 MEMORY| system memory details [Kb]
 MEMORY|                        rank 0           min           max       average
 MEMORY| MemTotal            263987256     263987256     263987256     263987256
 MEMORY| MemFree             242281888     242281888     242281888     242281888
 MEMORY| Buffers                   148           148           148           148
 MEMORY| Cached               17820740      17820740      17820740      17820740
 MEMORY| Slab                   934264        934264        934264        934264
 MEMORY| SReclaimable           419384        419384        419384        419384
 MEMORY| MemLikelyFree       260522160     260522160     260522160     260522160


 GENERATE|  Preliminary Number of Bonds generated:                             0
 GENERATE|  Achieved consistency in connectivity generation.

 *******************************************************************************
 *******************************************************************************
 **                                                                           **
 **     #####                         ##              ##                      **
 **    ##   ##            ##          ##              ##                      **
 **   ##     ##                       ##            ######                    **
 **   ##     ##  ##   ##  ##   #####  ##  ##   ####   ##    #####    #####    **
 **   ##     ##  ##   ##  ##  ##      ## ##   ##      ##   ##   ##  ##   ##   **
 **   ##  ## ##  ##   ##  ##  ##      ####     ###    ##   ######   ######    **
 **    ##  ###   ##   ##  ##  ##      ## ##      ##   ##   ##       ##        **
 **     #######   #####   ##   #####  ##  ##  ####    ##    #####   ##        **
 **           ##                                                    ##        **
 **                                                                           **
 **                                                ... make the atoms dance   **
 **                                                                           **
 **            Copyright (C) by CP2K developers group (2000 - 2020)           **
 **                      J. Chem. Phys. 152, 194103 (2020)                    **
 **                                                                           **
 *******************************************************************************


 TOTAL NUMBERS AND MAXIMUM NUMBERS

  Total number of            - Atomic kinds:                                   2
                             - Atoms:                                          3
                             - Shell sets:                                    36
                             - Shells:                                        60
                             - Primitive Cartesian functions:                 36
                             - Cartesian basis functions:                    168
                             - Spherical basis functions:                    156

  Maximum angular momentum of- Orbital basis functions:                        2
                             - Local part of the GTH pseudopotential:          2
                             - Non-local part of the GTH pseudopotential:      0


 SCF PARAMETERS         Density guess:                                    ATOMIC
                        --------------------------------------------------------
                        max_scf:                                              10
                        max_scf_history:                                       0
                        max_diis:                                              4
                        --------------------------------------------------------
                        eps_scf:                                        1.00E-07
                        eps_scf_history:                                0.00E+00
                        eps_diis:                                       1.00E-01
                        eps_eigval:                                     1.00E-05
                        --------------------------------------------------------
                        level_shift [a.u.]:                                 0.00
                        --------------------------------------------------------
                        Outer loop SCF in use 
                        No variables optimised in outer loop
                        eps_scf                                         1.00E-07
                        max_scf                                               10
                        No outer loop optimization
                        step_size                                       5.00E-01

 Number of electrons:                                                         20
 Number of occupied orbitals:                                                 10
 Number of molecular orbitals:                                                10

 Number of orbital functions:                                                156
 Number of independent orbital functions:                                    156

 Extrapolation method: initial_guess


 SCF WAVEFUNCTION OPTIMIZATION

  ----------------------------------- OT ---------------------------------------
  Minimizer      : DIIS                : direct inversion
                                         in the iterative subspace
                                         using   7 DIIS vectors
                                         safer DIIS on
  Preconditioner : FULL_ALL            : diagonalization, state selective
  Precond_solver : DEFAULT
  stepsize       :    0.15000000                  energy_gap     :    0.08000000
  eps_taylor     :   0.10000E-15                  max_taylor     :             4
  ----------------------------------- OT ---------------------------------------

  Step     Update method      Time    Convergence         Total energy    Change
  ------------------------------------------------------------------------------
     1 OT DIIS     0.15E+00    3.1     0.07462975       -63.0923714441 -6.31E+01
     2 OT DIIS     0.15E+00    0.5     0.04221595       -63.7509859126 -6.59E-01
     3 OT DIIS     0.15E+00    0.5     0.08890892       -63.7324820049  1.85E-02
     4 OT DIIS     0.15E+00    0.5     0.02771473       -63.9128981867 -1.80E-01
     5 OT DIIS     0.15E+00    0.5     0.02625887       -63.9377439825 -2.48E-02
     6 OT SD       0.15E+00    0.5     0.03243952       -63.9640937527 -2.63E-02
     7 OT DIIS     0.15E+00    0.5     0.06640202       -63.9619395740  2.15E-03
     8 OT DIIS     0.15E+00    0.5     0.03404654       -63.9649201856 -2.98E-03
     9 OT DIIS     0.15E+00    0.5     0.03198152       -64.0358272040 -7.09E-02
    10 OT SD       0.15E+00    0.5     0.02705394       -64.0993288673 -6.35E-02

  Leaving inner SCF loop after reaching    10 steps.


  Electronic density on regular grids:        -19.9999999748        0.0000000252
  Core density on regular grids:               20.0000000000        0.0000000000
  Total charge density on r-space grids:        0.0000000252
  Total charge density g-space grids:           0.0000000252

  Overlap energy of the core charge distribution:               0.00000000000000
  Self energy of the core charge distribution:               -172.35293226244826
  Core Hamiltonian energy:                                     47.57267290385371
  Hartree energy:                                              73.19792361372082
  Exchange-correlation energy:                                 -9.62481983054442
  Hartree-Fock Exchange energy:                                -2.89217329183639

  Total energy:                                               -64.09932886725454

  outer SCF iter =    1 RMS gradient =   0.27E-01 energy =        -64.0993288673

  ----------------------------------- OT ---------------------------------------
  Minimizer      : DIIS                : direct inversion
                                         in the iterative subspace
                                         using   7 DIIS vectors
                                         safer DIIS on
  Preconditioner : FULL_ALL            : diagonalization, state selective
  Precond_solver : DEFAULT
  stepsize       :    0.15000000                  energy_gap     :    0.08000000
  eps_taylor     :   0.10000E-15                  max_taylor     :             4
  ----------------------------------- OT ---------------------------------------

  Step     Update method      Time    Convergence         Total energy    Change
  ------------------------------------------------------------------------------
     1 OT DIIS     0.15E+00    1.0     0.02756484       -64.1302075200 -3.09E-02
     2 OT DIIS     0.15E+00    0.5     0.02597719       -64.1558467899 -2.56E-02
     3 OT DIIS     0.15E+00    0.5     0.00444965       -64.1959894766 -4.01E-02
     4 OT DIIS     0.15E+00    0.5     0.00168663       -64.1996779398 -3.69E-03
     5 OT DIIS     0.15E+00    0.5     0.00066552       -64.1999583108 -2.80E-04
     6 OT DIIS     0.15E+00    0.5     0.00026125       -64.2000404706 -8.22E-05
     7 OT DIIS     0.15E+00    0.5     0.00009363       -64.2000581175 -1.76E-05
     8 OT DIIS     0.15E+00    0.5     0.00002622       -64.2000606199 -2.50E-06
     9 OT DIIS     0.15E+00    0.5     0.00000698       -64.2000608086 -1.89E-07
    10 OT DIIS     0.15E+00    0.5     0.00000211       -64.2000608207 -1.20E-08

  Leaving inner SCF loop after reaching    10 steps.


  Electronic density on regular grids:        -19.9999999730        0.0000000270
  Core density on regular grids:               20.0000000000        0.0000000000
  Total charge density on r-space grids:        0.0000000270
  Total charge density g-space grids:           0.0000000270

  Overlap energy of the core charge distribution:               0.00000000000000
  Self energy of the core charge distribution:               -172.35293226244826
  Core Hamiltonian energy:                                     47.45727407177711
  Hartree energy:                                              73.22804619586512
  Exchange-correlation energy:                                 -9.62743746879111
  Hartree-Fock Exchange energy:                                -2.90501135706727

  Total energy:                                               -64.20006082066442

  outer SCF iter =    2 RMS gradient =   0.21E-05 energy =        -64.2000608207

  ----------------------------------- OT ---------------------------------------
  Minimizer      : DIIS                : direct inversion
                                         in the iterative subspace
                                         using   7 DIIS vectors
                                         safer DIIS on
  Preconditioner : FULL_ALL            : diagonalization, state selective
  Precond_solver : DEFAULT
  stepsize       :    0.15000000                  energy_gap     :    0.08000000
  eps_taylor     :   0.10000E-15                  max_taylor     :             4
  ----------------------------------- OT ---------------------------------------

  Step     Update method      Time    Convergence         Total energy    Change
  ------------------------------------------------------------------------------
     1 OT DIIS     0.15E+00    1.0     0.00000122       -64.2000608217 -9.90E-10
     2 OT DIIS     0.15E+00    0.5     0.00000101       -64.2000608218 -1.09E-10
     3 OT DIIS     0.15E+00    0.5     0.00000031       -64.2000608218 -6.75E-11
     4 OT DIIS     0.15E+00    0.5     0.00000006       -64.2000608219 -2.03E-11

  *** SCF run converged in     4 steps ***


  Electronic density on regular grids:        -19.9999999730        0.0000000270
  Core density on regular grids:               20.0000000000        0.0000000000
  Total charge density on r-space grids:        0.0000000270
  Total charge density g-space grids:           0.0000000270

  Overlap energy of the core charge distribution:               0.00000000000000
  Self energy of the core charge distribution:               -172.35293226244826
  Core Hamiltonian energy:                                     47.45727362605223
  Hartree energy:                                              73.22804652983699
  Exchange-correlation energy:                                 -9.62743738000250
  Hartree-Fock Exchange energy:                                -2.90501133528915

  Total energy:                                               -64.20006082185070

  outer SCF iter =    3 RMS gradient =   0.58E-07 energy =        -64.2000608219
  outer SCF loop converged in   3 iterations or   24 steps


 ENERGY| Total FORCE_EVAL ( QS ) energy [a.u.]:              -64.200060821850698

 -------------------------------------------------------------------------------
 -                                                                             -
 -                                DBCSR STATISTICS                             -
 -                                                                             -
 -------------------------------------------------------------------------------
 COUNTER                                    TOTAL       BLAS       SMM       ACC
 flops    10 x    10 x    10               344000       0.0%    100.0%      0.0%
 flops    10 x    10 x    52              3088800       0.0%    100.0%      0.0%
 flops    52 x    10 x    10              3837600       0.0%    100.0%      0.0%
 flops    52 x    52 x    10              8112000       0.0%    100.0%      0.0%
 flops    52 x    10 x    52             59379840       0.0%    100.0%      0.0%
 flops inhomo. stacks                           0       0.0%      0.0%      0.0%
 flops total                        74.762240E+06       0.0%    100.0%      0.0%
 flops max/rank                     25.857280E+06       0.0%    100.0%      0.0%
 matmuls inhomo. stacks                         0       0.0%      0.0%      0.0%
 matmuls total                               2086       0.0%    100.0%      0.0%
 number of processed stacks                  2086       0.0%    100.0%      0.0%
 average stack size                                     0.0       1.0       0.0
 marketing flops                    78.911584E+06
 -------------------------------------------------------------------------------
 # multiplications                            544
 max memory usage/rank             358.182912E+06
 # max total images/rank                        1
 # max 3D layers                                1
 # MPI messages exchanged                  195840
 MPI messages size (bytes):
  total size                       151.390880E+06
  min size                           0.000000E+00
  max size                          21.632000E+03
  average size                     773.033508E+00
 MPI breakdown and total messages size (bytes):
             size <=      128              180620                        0
       128 < size <=     8192                9730                 32631200
      8192 < size <=    32768                5490                118759680
     32768 < size <=   131072                   0                        0
    131072 < size <=  4194304                   0                        0
   4194304 < size <= 16777216                   0                        0
  16777216 < size                               0                        0
 -------------------------------------------------------------------------------
 -                                                                             -
 -                      DBCSR MESSAGE PASSING PERFORMANCE                      -
 -                                                                             -
 -------------------------------------------------------------------------------
 ROUTINE             CALLS      AVE VOLUME [Bytes]
 MP_Bcast                6                     12.
 MP_Allreduce         2887                      8.
 MP_Alltoall          2316                   2666.
 MP_ISend            13044                   1054.
 MP_IRecv            13044                    665.
 -------------------------------------------------------------------------------

 -------------------------------------------------------------------------------
 -                                                                             -
 -                                GRID STATISTICS                              -
 -                                                                             -
 -------------------------------------------------------------------------------
 LP    KERNEL    OPERATION                                     COUNT     PERCENT
 0     general   collocate                                       108       0.26%
 2     ortho     integrate                                      8568      20.99%
 2     ortho     collocate                                      8925      21.86%
 3     ortho     integrate                                      9072      22.22%
 3     ortho     collocate                                      9450      23.15%
 4     ortho     integrate                                      2304       5.64%
 4     ortho     collocate                                      2400       5.88%
 -------------------------------------------------------------------------------

 MEMORY| Estimated peak process memory [MiB]                                 342

 -------------------------------------------------------------------------------
 -                                                                             -
 -                         MESSAGE PASSING PERFORMANCE                         -
 -                                                                             -
 -------------------------------------------------------------------------------

 ROUTINE             CALLS      AVE VOLUME [Bytes]
 MP_Group                5
 MP_Bcast              373                 499521.
 MP_Allreduce         1052                   1346.
 MP_Sync               153
 MP_Alltoall           478                6165956.
 MP_ISendRecv         5180                  29533.
 MP_Wait              9731
 MP_comm_split          26
 MP_ISend             4156                 175327.
 MP_IRecv             4156                 175327.
 MP_Recv                 8                   2496.
 -------------------------------------------------------------------------------


 -------------------------------------------------------------------------------
 -                                                                             -
 -                           R E F E R E N C E S                               -
 -                                                                             -
 -------------------------------------------------------------------------------
 
 CP2K version 8.0 (Development Version), the CP2K developers group (2020).
 CP2K is freely available from https://www.cp2k.org/ .

 Kuehne,Thomas D.; Iannuzzi,Marcella; Del Ben,Mauro;
 Rybkin,Vladimir V.; Seewald,Patrick; Stein,Frederick; Laino,Teodoro;
 Khaliullin,Rustam Z.; Schuett,Ole; Schiffmann,Florian; Golze,Dorothea;
 Wilhelm,Jan; Chulkov,Sergey; Bani-Hashemian,Mohammad Hossein;
 Weber,Valery; Borstnik,Urban; Taillefumier,Mathieu;
 Jakobovits,Alice Shoshana; Lazzaro,Alfio; Pabst,Hans; Mueller,Tiziano;
 Schade,Robert; Guidon,Manuel; Andermatt,Samuel; Holmberg,Nico;
 Schenter,Gregory K.; Hehn,Anna; Bussy,Augustin; Belleflamme,Fabian;
 Tabacchi,Gloria; Gloess,Andreas; Lass,Michael; Bethune,Iain;
 Mundy,Christopher J.; Plessl,Christian; Watkins,Matt;
 VandeVondele,Joost; Krack,Matthias; Hutter,Juerg. 
 The Journal of Chemical Physics, 152 (19), (2020). 
 CP2K: An electronic structure and molecular dynamics software package -
 Quickstep: Efficient and accurate electronic structure calculations.
 https://doi.org/10.1063/5.0007045

 Schuett, Ole; Messmer, Peter; Hutter, Juerg; VandeVondele, Joost. 
 Electronic Structure Calculations on Graphics Processing Units, John
 Wiley & Sons, Ltd, 173-190 (2016). 
 GPU-Accelerated Sparse Matrix-Matrix Multiplication for
 Linear Scaling Density Functional Theory.
 https://doi.org/10.1002/9781118670712.ch8

 Borstnik, U; VandeVondele, J; Weber, V; Hutter, J. 
 PARALLEL COMPUTING, 40 (5-6), 47-58 (2014). 
 Sparse matrix multiplication: The distributed block-compressed sparse
 row library.
 https://doi.org/10.1016/j.parco.2014.03.012

 Hutter, J; Iannuzzi, M; Schiffmann, F; VandeVondele, J. 
 WIREs Comput Mol Sci., 4 (1), 15-25 (2014). 
 CP2K: atomistic simulations of condensed matter systems.
 https://doi.org/10.1002/wcms.1159

 Marek, A; Blum, V; Johanni, R; Havu, V; Lang, B; Auckenthaler, T;
 Heinecke, A; Bungartz, H; Lederer, H. 
 Journal of Physics: Condensed Matter, 26 (21), (2014). 
 The ELPA library: scalable parallel eigenvalue solutions for
 electronic structure
 theory and computational science.
 https://doi.org/10.1088/0953-8984/26/21/213201

 Guidon, M; Hutter, J; VandeVondele, J. 
 JOURNAL OF CHEMICAL THEORY AND COMPUTATION, 5 (11), 3010-3021 (2009). 
 Robust Periodic Hartree-Fock Exchange for Large-Scale Simulations Using
 Gaussian Basis Sets.
 https://doi.org/10.1021/ct900494g

 Guidon, M; Schiffmann, F; Hutter, J; VandeVondele, J. 
 JOURNAL OF CHEMICAL PHYSICS, 128 (21), 214104 (2008). 
 Ab initio molecular dynamics using hybrid density functionals.
 https://doi.org/10.1063/1.2931945

 Krack, M. 
 THEORETICAL CHEMISTRY ACCOUNTS, 114 (1-3), 145-152 (2005). 
 Pseudopotentials for H to Kr optimized for gradient-corrected
 exchange-correlation functionals.
 https://doi.org/10.1007/s00214-005-0655-y

 VandeVondele, J; Krack, M; Mohamed, F; Parrinello, M; Chassaing, T;
 Hutter, J. COMPUTER PHYSICS COMMUNICATIONS, 167 (2), 103-128 (2005). 
 QUICKSTEP: Fast and accurate density functional calculations using a
 mixed Gaussian and plane waves approach.
 https://doi.org/10.1016/j.cpc.2004.12.014

 Frigo, M; Johnson, SG. 
 PROCEEDINGS OF THE IEEE, 93 (2), 216-231 (2005). 
 The design and implementation of FFTW3.
 https://doi.org/10.1109/JPROC.2004.840301

 VandeVondele, J; Hutter, J. 
 JOURNAL OF CHEMICAL PHYSICS, 118 (10), 4365-4369 (2003). 
 An efficient orbital transformation method for electronic structure
 calculations.
 https://doi.org/10.1063/1.1543154

 Martyna, GJ; Tuckerman, ME. 
 JOURNAL OF CHEMICAL PHYSICS, 110 (6), 2810-2821 (1999). 
 A reciprocal space based method for treating long range interactions in
 ab initio and force-field-based calculations in clusters.
 https://doi.org/10.1063/1.477923

 Hartwigsen, C; Goedecker, S; Hutter, J. 
 PHYSICAL REVIEW B, 58 (7), 3641-3662 (1998). 
 Relativistic separable dual-space Gaussian pseudopotentials from H to Rn.
 https://doi.org/10.1103/PhysRevB.58.3641

 Lippert, G; Hutter, J; Parrinello, M. 
 MOLECULAR PHYSICS, 92 (3), 477-487 (1997). 
 A hybrid Gaussian and plane wave density functional scheme.
 https://doi.org/10.1080/002689797170220

 Perdew, JP; Burke, K; Ernzerhof, M. 
 PHYSICAL REVIEW LETTERS, 77 (18), 3865-3868 (1996). 
 Generalized gradient approximation made simple.
 https://doi.org/10.1103/PhysRevLett.77.3865

 Goedecker, S; Teter, M; Hutter, J. 
 PHYSICAL REVIEW B, 54 (3), 1703-1710 (1996). 
 Separable dual-space Gaussian pseudopotentials.
 https://doi.org/10.1103/PhysRevB.54.1703


 -------------------------------------------------------------------------------
 -                                                                             -
 -                                T I M I N G                                  -
 -                                                                             -
 -------------------------------------------------------------------------------
 SUBROUTINE                       CALLS  ASD         SELF TIME        TOTAL TIME
                                MAXIMUM       AVERAGE  MAXIMUM  AVERAGE  MAXIMUM
 CP2K                                 1  1.0    0.006    0.009   15.029   15.029
 qs_energies                          1  2.0    0.000    0.000   14.798   14.799
 scf_env_do_scf                       1  3.0    0.000    0.000   14.614   14.615
 qs_ks_update_qs_env                 27  5.0    0.000    0.000   11.580   11.581
 rebuild_ks_matrix                   24  6.0    0.000    0.000   11.578   11.579
 qs_ks_build_kohn_sham_matrix        24  7.0    0.004    0.005   11.578   11.579
 scf_env_do_scf_inner_loop           24  4.0    0.001    0.002   10.737   10.737
 pw_transfer                        463  9.6    0.040    0.049    5.818    6.604
 fft_wrap_pw1pw2                    415 10.7    0.005    0.007    5.732    6.526
 fft_wrap_pw1pw2_300                267 11.8    0.295    0.353    5.418    6.211
 fft3d_ps                           415 12.7    2.068    2.216    4.603    5.476
 qs_vxc_create                       24  8.0    0.001    0.001    4.869    4.887
 xc_vxc_pw_create                    24  9.0    0.042    0.044    4.868    4.886
 hfx_ks_matrix                       24  8.0    0.001    0.001    3.919    3.921
 integrate_four_center               24  9.0    0.009    0.011    3.918    3.918
 init_scf_loop                        3  4.0    0.000    0.000    3.877    3.877
 mp_alltoall_z22v                   415 14.7    2.041    3.031    2.041    3.031
 xc_rho_set_and_dset_create          24 10.0    0.022    0.026    2.482    2.906
 qs_rho_update_rho                   25  5.0    0.000    0.000    2.611    2.612
 calculate_rho_elec                  25  6.0    0.018    0.019    2.611    2.611
 yz_to_x                            198 13.1    0.202    0.232    1.376    2.228
 density_rs2pw                       25  7.0    0.001    0.002    2.049    2.175
 rs_pw_transfer                     197  9.5    0.004    0.006    1.914    2.049
 sum_up_and_integrate                24  8.0    0.010    0.013    1.951    1.952
 integrate_v_rspace_low              24  9.0    0.038    0.397    1.941    1.943
 mp_sync                            153 10.9    0.726    1.546    0.726    1.546
 potential_pw2rs                     24 10.0    0.002    0.003    1.537    1.540
 integrate_four_center_main          24 10.0    0.003    0.005    0.822    1.497
 integrate_four_center_bin         3048 11.0    0.819    1.495    0.819    1.495
 calc_screening_functions             1 10.0    0.691    0.697    1.411    1.428
 x_to_yz                            217 14.2    0.280    0.318    1.147    1.303
 xc_functional_eval                  24 11.0    0.000    0.000    0.872    1.298
 pbe_lda_eval                        24 12.0    0.872    1.297    0.872    1.297
 powell_optimize                 344590 11.0    0.933    0.948    0.933    0.948
 mp_waitany                        4156 11.4    0.689    0.935    0.689    0.935
 calc_pair_dist_radii                 1 10.0    0.609    0.614    0.822    0.828
 rs_pw_transfer_RS2PW_300            26  8.9    0.290    0.396    0.653    0.786
 grid_collocate_task_list            25  7.0    0.322    0.727    0.322    0.727
 rs_pw_transfer_PW2RS_300            24 12.0    0.304    0.386    0.533    0.615
 pw_gather_p                        198 12.1    0.387    0.502    0.387    0.502
 pw_scatter_p                       217 13.2    0.424    0.492    0.424    0.492
 mp_alltoall_d11v                   625 11.5    0.422    0.485    0.422    0.485
 qs_scf_new_mos                      24  5.0    0.000    0.000    0.427    0.429
 qs_scf_loop_do_ot                   24  6.0    0.000    0.000    0.427    0.429
 ot_scf_mini                         24  7.0    0.000    0.000    0.411    0.412
 mp_waitall_1                     40391 13.8    0.258    0.409    0.258    0.409
 rs_distribute_matrix                24 10.0    0.000    0.001    0.364    0.403
 rs_pw_transfer_PW2RS_100            24 12.0    0.106    0.132    0.303    0.394
 dbcsr_multiply_generic             544 10.0    0.014    0.015    0.374    0.378
 rs_grid_zero                       149  8.9    0.275    0.319    0.275    0.319
 pw_poisson_solve                    24  8.0    0.060    0.082    0.310    0.311
 -------------------------------------------------------------------------------

 The number of warnings for this run is : 0
 
 -------------------------------------------------------------------------------
  **** **** ******  **  PROGRAM ENDED AT                 2020-11-30 12:57:44.037
 ***** ** ***  *** **   PROGRAM RAN ON                                   tcopt10
 **    ****   ******    PROGRAM RAN BY                                    hutter
 ***** **    ** ** **   PROGRAM PROCESS ID                                 82784
  **** **  *******  **  PROGRAM STOPPED IN /data/hutter/GITHUB/BASIS/MOLOPT/PBE0
                                           /hbcnof
