SIRIUS 7.0.0, git hash: https://api.github.com/repos/electronic-structure/SIRIUS/git/ref/tags/v7.0.0

  **** **** ******  **  PROGRAM STARTED AT               2020-12-01 18:12:39.594
 ***** ** ***  *** **   PROGRAM STARTED ON                               tcopt10
 **    ****   ******    PROGRAM STARTED BY                                hutter
 ***** **    ** ** **   PROGRAM PROCESS ID                                 21366
  **** **  *******  **  PROGRAM STARTED IN /data/hutter/GITHUB/BASIS/MOLOPT/PBE0
                                           /hbcnof

 CP2K| version string:                    CP2K version 8.0 (Development Version)
 CP2K| source code revision number:                                  git:afc71fa
 CP2K| cp2kflags: omp libint fftw3 libxc elpa parallel mpi3 scalapack xsmm spgli
 CP2K|            b sirius
 CP2K| is freely available from                            https://www.cp2k.org/
 CP2K| Program compiled at                          Tue Nov 17 10:27:14 CET 2020
 CP2K| Program compiled on                                               tcopt10
 CP2K| Program compiled for                                                local
 CP2K| Data directory path                 /data/hutter/GITHUB/CURRENT/cp2k/data
 CP2K| Input file name                                               opt-all.inp

 GLOBAL| Method name                                              OPTIMIZE_BASIS
 GLOBAL| Project name                                                     molopt
 GLOBAL| Preferred FFT library                                             FFTW3
 GLOBAL| Preferred diagonalization lib.                                     ELPA
 GLOBAL| Run type                                                   ENERGY_FORCE
 GLOBAL| All-to-all communication in single precision                          F
 GLOBAL| FFTs using library dependent lengths                                  F
 GLOBAL| Global print level                                               MEDIUM
 GLOBAL| MPI I/O enabled                                                       T
 GLOBAL| Total number of message passing processes                            24
 GLOBAL| Number of threads for this process                                    1
 GLOBAL| This output is from process                                           0
 GLOBAL| CPU model name                          AMD EPYC 7401 24-Core Processor
 GLOBAL| CPUID                                                              1002

 MEMORY| system memory details [Kb]
 MEMORY|                        rank 0           min           max       average
 MEMORY| MemTotal            263987256     263987256     263987256     263987256
 MEMORY| MemFree             257743660     257743660     257743660     257743660
 MEMORY| Buffers                    40            40            40            40
 MEMORY| Cached                3209228       3209228       3209228       3209228
 MEMORY| Slab                   781872        781872        781872        781872
 MEMORY| SReclaimable           286236        286236        286236        286236
 MEMORY| MemLikelyFree       261239164     261239164     261239164     261239164


 *** Fundamental physical constants (SI units) ***

 *** Literature: B. J. Mohr and B. N. Taylor,
 ***             CODATA recommended values of the fundamental physical
 ***             constants: 2006, Web Version 5.1
 ***             http://physics.nist.gov/constants

 Speed of light in vacuum [m/s]                             2.99792458000000E+08
 Magnetic constant or permeability of vacuum [N/A**2]       1.25663706143592E-06
 Electric constant or permittivity of vacuum [F/m]          8.85418781762039E-12
 Planck constant (h) [J*s]                                  6.62606896000000E-34
 Planck constant (h-bar) [J*s]                              1.05457162825177E-34
 Elementary charge [C]                                      1.60217648700000E-19
 Electron mass [kg]                                         9.10938215000000E-31
 Electron g factor [ ]                                     -2.00231930436220E+00
 Proton mass [kg]                                           1.67262163700000E-27
 Fine-structure constant                                    7.29735253760000E-03
 Rydberg constant [1/m]                                     1.09737315685270E+07
 Avogadro constant [1/mol]                                  6.02214179000000E+23
 Boltzmann constant [J/K]                                   1.38065040000000E-23
 Atomic mass unit [kg]                                      1.66053878200000E-27
 Bohr radius [m]                                            5.29177208590000E-11

 *** Conversion factors ***

 [u] -> [a.u.]                                              1.82288848426455E+03
 [Angstrom] -> [Bohr] = [a.u.]                              1.88972613288564E+00
 [a.u.] = [Bohr] -> [Angstrom]                              5.29177208590000E-01
 [a.u.] -> [s]                                              2.41888432650478E-17
 [a.u.] -> [fs]                                             2.41888432650478E-02
 [a.u.] -> [J]                                              4.35974393937059E-18
 [a.u.] -> [N]                                              8.23872205491840E-08
 [a.u.] -> [K]                                              3.15774647902944E+05
 [a.u.] -> [kJ/mol]                                         2.62549961709828E+03
 [a.u.] -> [kcal/mol]                                       6.27509468713739E+02
 [a.u.] -> [Pa]                                             2.94210107994716E+13
 [a.u.] -> [bar]                                            2.94210107994716E+08
 [a.u.] -> [atm]                                            2.90362800883016E+08
 [a.u.] -> [eV]                                             2.72113838565563E+01
 [a.u.] -> [Hz]                                             6.57968392072181E+15
 [a.u.] -> [1/cm] (wave numbers)                            2.19474631370540E+05
 [a.u./Bohr**2] -> [1/cm]                                   5.14048714338585E+03
 
 DBCSR| CPU Multiplication driver                                           XSMM
 DBCSR| Multrec recursion limit                                              512
 DBCSR| Multiplication stack size                                           1000
 DBCSR| Maximum elements for images                                    UNLIMITED
 DBCSR| Multiplicative factor virtual images                                   1
 DBCSR| Use multiplication densification                                       T
 DBCSR| Multiplication size stacks                                             3
 DBCSR| Use memory pool for CPU allocation                                     F
 DBCSR| Number of 3D layers                                               SINGLE
 DBCSR| Use MPI memory allocation                                              F
 DBCSR| Use RMA algorithm                                                      F
 DBCSR| Use Communication thread                                               T
 DBCSR| Communication thread load                                             87
 DBCSR| Split modifier for TAS multiplication algorithm                  1.0E+00

 BASOPT| Total number of calculations    126

 BASOPT| Content of basis combination      1
 BASOPT|     Element:    H    Basis set:    TZV2P-MOLOPT-PBE0-GTH-Q1
 BASOPT|     Element:    B    Basis set:    TZV2P-MOLOPT-PBE0-GTH-Q3
 BASOPT|     Element:    C    Basis set:    TZV2P-MOLOPT-PBE0-GTH-Q4
 BASOPT|     Element:    N    Basis set:    TZV2P-MOLOPT-PBE0-GTH-Q5
 BASOPT|     Element:    O    Basis set:    TZV2P-MOLOPT-PBE0-GTH-Q6
 BASOPT|     Element:    F    Basis set:    TZV2P-MOLOPT-PBE0-GTH-Q7

 BASOPT| Content of basis combination      2
 BASOPT|     Element:    H    Basis set:    TZVP-MOLOPT-PBE0-GTH-q1
 BASOPT|     Element:    B    Basis set:    TZVP-MOLOPT-PBE0-GTH-q3
 BASOPT|     Element:    C    Basis set:    TZVP-MOLOPT-PBE0-GTH-q4
 BASOPT|     Element:    N    Basis set:    TZVP-MOLOPT-PBE0-GTH-q5
 BASOPT|     Element:    O    Basis set:    TZVP-MOLOPT-PBE0-GTH-q6
 BASOPT|     Element:    F    Basis set:    TZVP-MOLOPT-PBE0-GTH-q7

 BASOPT| Content of basis combination      3
 BASOPT|     Element:    H    Basis set:    DZVP-MOLOPT-PBE0-GTH-q1
 BASOPT|     Element:    B    Basis set:    DZVP-MOLOPT-PBE0-GTH-q3
 BASOPT|     Element:    C    Basis set:    DZVP-MOLOPT-PBE0-GTH-q4
 BASOPT|     Element:    N    Basis set:    DZVP-MOLOPT-PBE0-GTH-q5
 BASOPT|     Element:    O    Basis set:    DZVP-MOLOPT-PBE0-GTH-q6
 BASOPT|     Element:    F    Basis set:    DZVP-MOLOPT-PBE0-GTH-q7

