SIRIUS 7.0.0, git hash: https://api.github.com/repos/electronic-structure/SIRIUS/git/ref/tags/v7.0.0

  **** **** ******  **  PROGRAM STARTED AT               2020-12-01 18:21:05.651
 ***** ** ***  *** **   PROGRAM STARTED ON                               tcopt13
 **    ****   ******    PROGRAM STARTED BY                                hutter
 ***** **    ** ** **   PROGRAM PROCESS ID                                111785
  **** **  *******  **  PROGRAM STARTED IN /data/hutter/GITHUB/BASIS/MOLOPT/PBE0
                                           /hbcnof

 CP2K| version string:                    CP2K version 8.0 (Development Version)
 CP2K| source code revision number:                                  git:971f4a7
 CP2K| cp2kflags: omp libint fftw3 libxc elpa parallel mpi3 scalapack xsmm spgli
 CP2K|            b sirius
 CP2K| is freely available from                            https://www.cp2k.org/
 CP2K| Program compiled at                          Mon Nov 30 14:07:31 CET 2020
 CP2K| Program compiled on                                               tcopt13
 CP2K| Program compiled for                                                local
 CP2K| Data directory path                 /data/hutter/GITHUB/CURRENT/cp2k/data
 CP2K| Input file name                                               opt-all.inp

 GLOBAL| Method name                                              OPTIMIZE_BASIS
 GLOBAL| Project name                                                     molopt
 GLOBAL| Preferred FFT library                                             FFTW3
 GLOBAL| Preferred diagonalization lib.                                     ELPA
 GLOBAL| Run type                                                   ENERGY_FORCE
 GLOBAL| All-to-all communication in single precision                          F
 GLOBAL| FFTs using library dependent lengths                                  F
 GLOBAL| Global print level                                               MEDIUM
 GLOBAL| MPI I/O enabled                                                       T
 GLOBAL| Total number of message passing processes                            64
 GLOBAL| Number of threads for this process                                    1
 GLOBAL| This output is from process                                           0
 GLOBAL| CPU model name                          AMD EPYC 7742 64-Core Processor
 GLOBAL| CPUID                                                              1002

 MEMORY| system memory details [Kb]
 MEMORY|                        rank 0           min           max       average
 MEMORY| MemTotal           1056629884    1056629884    1056629884    1056629884
 MEMORY| MemFree             876531748     876531748     876531748     876531748
 MEMORY| Buffers                  1220          1220          1220          1220
 MEMORY| Cached              166235708     166235708     166235708     166235708
 MEMORY| Slab                  5476564       5476564       5476564       5476564
 MEMORY| SReclaimable          3823840       3823840       3823840       3823840
 MEMORY| MemLikelyFree      1046592516    1046592516    1046592516    1046592516


 *** Fundamental physical constants (SI units) ***

 *** Literature: B. J. Mohr and B. N. Taylor,
 ***             CODATA recommended values of the fundamental physical
 ***             constants: 2006, Web Version 5.1
 ***             http://physics.nist.gov/constants

 Speed of light in vacuum [m/s]                             2.99792458000000E+08
 Magnetic constant or permeability of vacuum [N/A**2]       1.25663706143592E-06
 Electric constant or permittivity of vacuum [F/m]          8.85418781762039E-12
 Planck constant (h) [J*s]                                  6.62606896000000E-34
 Planck constant (h-bar) [J*s]                              1.05457162825177E-34
 Elementary charge [C]                                      1.60217648700000E-19
 Electron mass [kg]                                         9.10938215000000E-31
 Electron g factor [ ]                                     -2.00231930436220E+00
 Proton mass [kg]                                           1.67262163700000E-27
 Fine-structure constant                                    7.29735253760000E-03
 Rydberg constant [1/m]                                     1.09737315685270E+07
 Avogadro constant [1/mol]                                  6.02214179000000E+23
 Boltzmann constant [J/K]                                   1.38065040000000E-23
 Atomic mass unit [kg]                                      1.66053878200000E-27
 Bohr radius [m]                                            5.29177208590000E-11

 *** Conversion factors ***

 [u] -> [a.u.]                                              1.82288848426455E+03
 [Angstrom] -> [Bohr] = [a.u.]                              1.88972613288564E+00
 [a.u.] = [Bohr] -> [Angstrom]                              5.29177208590000E-01
 [a.u.] -> [s]                                              2.41888432650478E-17
 [a.u.] -> [fs]                                             2.41888432650478E-02
 [a.u.] -> [J]                                              4.35974393937059E-18
 [a.u.] -> [N]                                              8.23872205491840E-08
 [a.u.] -> [K]                                              3.15774647902944E+05
 [a.u.] -> [kJ/mol]                                         2.62549961709828E+03
 [a.u.] -> [kcal/mol]                                       6.27509468713739E+02
 [a.u.] -> [Pa]                                             2.94210107994716E+13
 [a.u.] -> [bar]                                            2.94210107994716E+08
 [a.u.] -> [atm]                                            2.90362800883016E+08
 [a.u.] -> [eV]                                             2.72113838565563E+01
 [a.u.] -> [Hz]                                             6.57968392072181E+15
 [a.u.] -> [1/cm] (wave numbers)                            2.19474631370540E+05
 [a.u./Bohr**2] -> [1/cm]                                   5.14048714338585E+03
 
 DBCSR| CPU Multiplication driver                                           XSMM
 DBCSR| Multrec recursion limit                                              512
 DBCSR| Multiplication stack size                                           1000
 DBCSR| Maximum elements for images                                    UNLIMITED
 DBCSR| Multiplicative factor virtual images                                   1
 DBCSR| Use multiplication densification                                       T
 DBCSR| Multiplication size stacks                                             3
 DBCSR| Use memory pool for CPU allocation                                     F
 DBCSR| Number of 3D layers                                               SINGLE
 DBCSR| Use MPI memory allocation                                              F
 DBCSR| Use RMA algorithm                                                      F
 DBCSR| Use Communication thread                                               T
 DBCSR| Communication thread load                                             87
 DBCSR| Split modifier for TAS multiplication algorithm                  1.0E+00

 BASOPT| Total number of calculations    126

 BASOPT| Content of basis combination      1
 BASOPT|     Element:    H    Basis set:    TZV2P-MOLOPT-PBE0-GTH-Q1
 BASOPT|     Element:    B    Basis set:    TZV2P-MOLOPT-PBE0-GTH-Q3
 BASOPT|     Element:    C    Basis set:    TZV2P-MOLOPT-PBE0-GTH-Q4
 BASOPT|     Element:    N    Basis set:    TZV2P-MOLOPT-PBE0-GTH-Q5
 BASOPT|     Element:    O    Basis set:    TZV2P-MOLOPT-PBE0-GTH-Q6
 BASOPT|     Element:    F    Basis set:    TZV2P-MOLOPT-PBE0-GTH-Q7

 BASOPT| Content of basis combination      2
 BASOPT|     Element:    H    Basis set:    TZVP-MOLOPT-PBE0-GTH-q1
 BASOPT|     Element:    B    Basis set:    TZVP-MOLOPT-PBE0-GTH-q3
 BASOPT|     Element:    C    Basis set:    TZVP-MOLOPT-PBE0-GTH-q4
 BASOPT|     Element:    N    Basis set:    TZVP-MOLOPT-PBE0-GTH-q5
 BASOPT|     Element:    O    Basis set:    TZVP-MOLOPT-PBE0-GTH-q6
 BASOPT|     Element:    F    Basis set:    TZVP-MOLOPT-PBE0-GTH-q7

 BASOPT| Content of basis combination      3
 BASOPT|     Element:    H    Basis set:    DZVP-MOLOPT-PBE0-GTH-q1
 BASOPT|     Element:    B    Basis set:    DZVP-MOLOPT-PBE0-GTH-q3
 BASOPT|     Element:    C    Basis set:    DZVP-MOLOPT-PBE0-GTH-q4
 BASOPT|     Element:    N    Basis set:    DZVP-MOLOPT-PBE0-GTH-q5
 BASOPT|     Element:    O    Basis set:    DZVP-MOLOPT-PBE0-GTH-q6
 BASOPT|     Element:    F    Basis set:    DZVP-MOLOPT-PBE0-GTH-q7

 BASOPT| Information at iteration number:       0
 BASOPT| Training set | Combination | Rho difference | Condition num. | Time
 BASOPT| -----------------------------------------------------------------------
 BASOPT|        1     |       1     | 0.22389730E-03 | 0.20776709E+05 |    0.088
 BASOPT|        1     |       2     | 0.64908014E-03 | 0.26556736E+04 |    0.054
 BASOPT|        1     |       3     | 0.87080679E-03 | 0.28121892E+03 |    0.041
 BASOPT|        2     |       1     | 0.57603870E-03 | 0.16636153E+05 |    0.026
 BASOPT|        2     |       2     | 0.11500478E-02 | 0.10452562E+05 |    0.015
 BASOPT|        2     |       3     | 0.23082931E-02 | 0.47098591E+03 |    0.011
 BASOPT|        3     |       1     | 0.72888778E-03 | 0.30241230E+05 |    0.260
 BASOPT|        3     |       2     | 0.15142008E-02 | 0.39387349E+04 |    0.133
 BASOPT|        3     |       3     | 0.23028358E-02 | 0.10444051E+04 |    0.116
 BASOPT|        4     |       1     | 0.43753820E-03 | 0.24989314E+05 |    0.087
 BASOPT|        4     |       2     | 0.83926969E-03 | 0.66187956E+04 |    0.045
 BASOPT|        4     |       3     | 0.19324199E-02 | 0.37744747E+03 |    0.037
 BASOPT|        5     |       1     | 0.53229267E-03 | 0.13489867E+04 |    0.019
 BASOPT|        5     |       2     | 0.98378158E-03 | 0.73979316E+03 |    0.009
 BASOPT|        5     |       3     | 0.17496843E-02 | 0.25599310E+03 |    0.009
 BASOPT|        6     |       1     | 0.57400263E-03 | 0.75754740E+04 |    0.052
 BASOPT|        6     |       2     | 0.91511900E-03 | 0.28803732E+04 |    0.029
 BASOPT|        6     |       3     | 0.17571429E-02 | 0.48270660E+03 |    0.023
 BASOPT|        7     |       1     | 0.55583784E-03 | 0.40178530E+05 |    0.090
 BASOPT|        7     |       2     | 0.10456956E-02 | 0.31883534E+04 |    0.053
 BASOPT|        7     |       3     | 0.19693449E-02 | 0.36047677E+03 |    0.041
 BASOPT|        8     |       1     | 0.12679307E-03 | 0.20898173E+04 |    0.014
 BASOPT|        8     |       2     | 0.29955064E-03 | 0.43829623E+03 |    0.009
 BASOPT|        8     |       3     | 0.37918554E-03 | 0.66963338E+02 |    0.008
 BASOPT|        9     |       1     | 0.35213064E-03 | 0.27278431E+05 |    0.028
 BASOPT|        9     |       2     | 0.53820689E-03 | 0.92279592E+04 |    0.016
 BASOPT|        9     |       3     | 0.86147153E-03 | 0.50305597E+03 |    0.015
 BASOPT|       10     |       1     | 0.36727355E-03 | 0.23150433E+05 |    0.050
 BASOPT|       10     |       2     | 0.71991865E-03 | 0.42105913E+04 |    0.031
 BASOPT|       10     |       3     | 0.87086623E-03 | 0.43778104E+03 |    0.024
 BASOPT|       11     |       1     | 0.41372051E-03 | 0.14154785E+05 |    0.117
 BASOPT|       11     |       2     | 0.76457013E-03 | 0.65154858E+04 |    0.070
 BASOPT|       11     |       3     | 0.11517690E-02 | 0.38215488E+03 |    0.067
 BASOPT|       12     |       1     | 0.97617015E-03 | 0.93425935E+05 |    0.257
 BASOPT|       12     |       2     | 0.18551178E-02 | 0.16737629E+05 |    0.139
 BASOPT|       12     |       3     | 0.29759131E-02 | 0.35027210E+04 |    0.114
 BASOPT|       13     |       1     | 0.86177316E-03 | 0.32639666E+05 |    0.179
 BASOPT|       13     |       2     | 0.14247800E-02 | 0.93079497E+04 |    0.095
 BASOPT|       13     |       3     | 0.21048211E-02 | 0.49363282E+03 |    0.083
 BASOPT|       14     |       1     | 0.89455490E-03 | 0.10996022E+06 |    0.315
 BASOPT|       14     |       2     | 0.16694317E-02 | 0.30454916E+05 |    0.192
 BASOPT|       14     |       3     | 0.27056955E-02 | 0.44147748E+04 |    0.155
 BASOPT|       15     |       1     | 0.99909873E-03 | 0.23303385E+04 |    0.042
 BASOPT|       15     |       2     | 0.21601632E-02 | 0.93181917E+03 |    0.022
 BASOPT|       15     |       3     | 0.27967432E-02 | 0.46909883E+03 |    0.020
 BASOPT|       16     |       1     | 0.60618371E-03 | 0.79747177E+04 |    0.036
 BASOPT|       16     |       2     | 0.11821366E-02 | 0.10885426E+04 |    0.022
 BASOPT|       16     |       3     | 0.16520960E-02 | 0.30985266E+03 |    0.016
 BASOPT|       17     |       1     | 0.75256097E-03 | 0.80432877E+04 |    0.037
 BASOPT|       17     |       2     | 0.13610964E-02 | 0.11670028E+04 |    0.019
 BASOPT|       17     |       3     | 0.19671395E-02 | 0.34767981E+03 |    0.017
 BASOPT|       18     |       1     | 0.95584927E-03 | 0.28314173E+05 |    0.068
 BASOPT|       18     |       2     | 0.14918180E-02 | 0.97315921E+04 |    0.038
 BASOPT|       18     |       3     | 0.23306932E-02 | 0.54832779E+03 |    0.031
 BASOPT|       19     |       1     | 0.52899841E-03 | 0.13159119E+05 |    0.029
 BASOPT|       19     |       2     | 0.87656501E-03 | 0.16153710E+04 |    0.016
 BASOPT|       19     |       3     | 0.13016169E-02 | 0.58033172E+03 |    0.016
 BASOPT|       20     |       1     | 0.59750172E-03 | 0.10183969E+05 |    0.051
 BASOPT|       20     |       2     | 0.10304886E-02 | 0.13578994E+04 |    0.029
 BASOPT|       20     |       3     | 0.15090860E-02 | 0.40705368E+03 |    0.025
 BASOPT|       21     |       1     | 0.21923551E-03 | 0.70911332E+04 |    0.031
 BASOPT|       21     |       2     | 0.43098228E-03 | 0.94043350E+03 |    0.016
 BASOPT|       21     |       3     | 0.57951049E-03 | 0.79709065E+02 |    0.016
 BASOPT|       22     |       1     | 0.59188105E-03 | 0.13395333E+04 |    0.006
 BASOPT|       22     |       2     | 0.95544156E-03 | 0.57409573E+03 |    0.005
 BASOPT|       22     |       3     | 0.17410444E-02 | 0.27368745E+03 |    0.003
 BASOPT|       23     |       1     | 0.27017550E-03 | 0.56137069E+03 |    0.005
 BASOPT|       23     |       2     | 0.33833646E-03 | 0.20102269E+03 |    0.003
 BASOPT|       23     |       3     | 0.38425741E-03 | 0.18697339E+03 |    0.003
 BASOPT|       24     |       1     | 0.92760709E-03 | 0.14732975E+05 |    0.060
 BASOPT|       24     |       2     | 0.16204752E-02 | 0.18937077E+04 |    0.031
 BASOPT|       24     |       3     | 0.24351237E-02 | 0.97565699E+03 |    0.024
 BASOPT|       25     |       1     | 0.58454886E-03 | 0.55918174E+04 |    0.020
 BASOPT|       25     |       2     | 0.95928952E-03 | 0.95910570E+03 |    0.011
 BASOPT|       25     |       3     | 0.14764681E-02 | 0.33739615E+03 |    0.015
 BASOPT|       26     |       1     | 0.55287657E-03 | 0.85961759E+04 |    0.019
 BASOPT|       26     |       2     | 0.89950329E-03 | 0.96515985E+03 |    0.012
 BASOPT|       26     |       3     | 0.13797733E-02 | 0.29368764E+03 |    0.010
 BASOPT|       27     |       1     | 0.53134534E-03 | 0.10932346E+05 |    0.010
 BASOPT|       27     |       2     | 0.76611495E-03 | 0.88281114E+03 |    0.005
 BASOPT|       27     |       3     | 0.93855342E-03 | 0.85867306E+02 |    0.005
 BASOPT|       28     |       1     | 0.42327114E-03 | 0.76992337E+04 |    0.003
 BASOPT|       28     |       2     | 0.58481234E-03 | 0.63515271E+03 |    0.004
 BASOPT|       28     |       3     | 0.69074905E-03 | 0.64558813E+02 |    0.002
 BASOPT|       29     |       1     | 0.35450406E-03 | 0.60821377E+04 |    0.017
 BASOPT|       29     |       2     | 0.54943586E-03 | 0.17596727E+04 |    0.010
 BASOPT|       29     |       3     | 0.10739408E-02 | 0.49847346E+03 |    0.008
 BASOPT|       30     |       1     | 0.39624420E-03 | 0.14290503E+04 |    0.004
 BASOPT|       30     |       2     | 0.54431083E-03 | 0.65000885E+03 |    0.004
 BASOPT|       30     |       3     | 0.66948000E-03 | 0.67551172E+02 |    0.002
 BASOPT|       31     |       1     | 0.46202683E-03 | 0.83632821E+04 |    0.014
 BASOPT|       31     |       2     | 0.78238108E-03 | 0.11616025E+04 |    0.008
 BASOPT|       31     |       3     | 0.16035131E-02 | 0.63865392E+03 |    0.008
 BASOPT|       32     |       1     | 0.76745085E-03 | 0.94381243E+04 |    0.020
 BASOPT|       32     |       2     | 0.12658029E-02 | 0.20413589E+04 |    0.014
 BASOPT|       32     |       3     | 0.19306390E-02 | 0.93438224E+03 |    0.010
 BASOPT|       33     |       1     | 0.70602055E-03 | 0.13624473E+05 |    0.032
 BASOPT|       33     |       2     | 0.13372653E-02 | 0.45558056E+04 |    0.016
 BASOPT|       33     |       3     | 0.21757233E-02 | 0.13147987E+04 |    0.013
 BASOPT|       34     |       1     | 0.56601300E-03 | 0.39143385E+04 |    0.008
 BASOPT|       34     |       2     | 0.87577422E-03 | 0.11224101E+04 |    0.006
 BASOPT|       34     |       3     | 0.16886605E-02 | 0.54756216E+03 |    0.004
 BASOPT|       35     |       1     | 0.59019117E-03 | 0.20369861E+05 |    0.016
 BASOPT|       35     |       2     | 0.92993654E-03 | 0.25500437E+04 |    0.009
 BASOPT|       35     |       3     | 0.16399930E-02 | 0.94166977E+03 |    0.009
 BASOPT|       36     |       1     | 0.94509786E-03 | 0.27143146E+05 |    0.041
 BASOPT|       36     |       2     | 0.13649094E-02 | 0.36877384E+04 |    0.023
 BASOPT|       36     |       3     | 0.18731976E-02 | 0.79002415E+03 |    0.017
 BASOPT|       37     |       1     | 0.31274904E-03 | 0.40616910E+04 |    0.005
 BASOPT|       37     |       2     | 0.50494649E-03 | 0.18763266E+04 |    0.003
 BASOPT|       37     |       3     | 0.13127501E-02 | 0.92499263E+03 |    0.003
 BASOPT|       38     |       1     | 0.51614516E-03 | 0.50810733E+04 |    0.017
 BASOPT|       38     |       2     | 0.10317928E-02 | 0.24084000E+04 |    0.010
 BASOPT|       38     |       3     | 0.19464692E-02 | 0.90361569E+03 |    0.007
 BASOPT|       39     |       1     | 0.63195875E-03 | 0.47391274E+04 |    0.019
 BASOPT|       39     |       2     | 0.10648242E-02 | 0.26884793E+04 |    0.010
 BASOPT|       39     |       3     | 0.15278818E-02 | 0.96950811E+03 |    0.010
 BASOPT|       40     |       1     | 0.68102650E-03 | 0.16611703E+05 |    0.015
 BASOPT|       40     |       2     | 0.88229569E-03 | 0.23029947E+04 |    0.010
 BASOPT|       40     |       3     | 0.10269473E-02 | 0.97164103E+02 |    0.010
 BASOPT|       41     |       1     | 0.89920958E-03 | 0.27915294E+05 |    0.041
 BASOPT|       41     |       2     | 0.11697159E-02 | 0.30712628E+04 |    0.023
 BASOPT|       41     |       3     | 0.15955996E-02 | 0.16597348E+03 |    0.019
 BASOPT|       42     |       1     | 0.45426346E-03 | 0.11941824E+04 |    0.010
 BASOPT|       42     |       2     | 0.65222707E-03 | 0.40896851E+03 |    0.009
 BASOPT|       42     |       3     | 0.89797497E-03 | 0.30523375E+03 |    0.007
 BASOPT| -----------------------------------------------------------------------
 BASOPT| Total residuum value: -.10369675E+05

 BASOPT| Information at iteration number:     100
 BASOPT| Training set | Combination | Rho difference | Condition num. | Time
 BASOPT| -----------------------------------------------------------------------
 BASOPT|        1     |       1     | 0.22389730E-03 | 0.20776709E+05 |    8.919
 BASOPT|        1     |       2     | 0.64908014E-03 | 0.26556736E+04 |    5.065
 BASOPT|        1     |       3     | 0.87080679E-03 | 0.28121892E+03 |    4.254
 BASOPT|        2     |       1     | 0.57603870E-03 | 0.16636153E+05 |    2.728
 BASOPT|        2     |       2     | 0.11500478E-02 | 0.10452562E+05 |    1.533
 BASOPT|        2     |       3     | 0.23082931E-02 | 0.47098591E+03 |    1.205
 BASOPT|        3     |       1     | 0.72888778E-03 | 0.30241230E+05 |   27.139
 BASOPT|        3     |       2     | 0.15142008E-02 | 0.39387349E+04 |   13.687
 BASOPT|        3     |       3     | 0.23028358E-02 | 0.10444051E+04 |   12.285
 BASOPT|        4     |       1     | 0.43753820E-03 | 0.24989314E+05 |    8.891
 BASOPT|        4     |       2     | 0.83926969E-03 | 0.66187956E+04 |    4.865
 BASOPT|        4     |       3     | 0.19324199E-02 | 0.37744747E+03 |    4.258
 BASOPT|        5     |       1     | 0.53229267E-03 | 0.13489867E+04 |    1.851
 BASOPT|        5     |       2     | 0.98378158E-03 | 0.73979316E+03 |    1.006
 BASOPT|        5     |       3     | 0.17496843E-02 | 0.25599310E+03 |    0.867
 BASOPT|        6     |       1     | 0.57030246E-03 | 0.73843947E+04 |    5.617
 BASOPT|        6     |       2     | 0.91442697E-03 | 0.29237449E+04 |    3.089
 BASOPT|        6     |       3     | 0.17571429E-02 | 0.48270660E+03 |    2.605
 BASOPT|        7     |       1     | 0.55583784E-03 | 0.40178530E+05 |    9.007
 BASOPT|        7     |       2     | 0.10456956E-02 | 0.31883534E+04 |    5.480
 BASOPT|        7     |       3     | 0.19693449E-02 | 0.36047677E+03 |    4.231
 BASOPT|        8     |       1     | 0.12679307E-03 | 0.20898173E+04 |    1.432
 BASOPT|        8     |       2     | 0.29955064E-03 | 0.43829623E+03 |    0.919
 BASOPT|        8     |       3     | 0.37918554E-03 | 0.66963338E+02 |    0.765
 BASOPT|        9     |       1     | 0.35577399E-03 | 0.26537137E+05 |    3.018
 BASOPT|        9     |       2     | 0.54456002E-03 | 0.87283729E+04 |    1.793
 BASOPT|        9     |       3     | 0.86147153E-03 | 0.50305597E+03 |    1.563
 BASOPT|       10     |       1     | 0.36924904E-03 | 0.27270256E+05 |    5.476
 BASOPT|       10     |       2     | 0.71771246E-03 | 0.41613221E+04 |    3.063
 BASOPT|       10     |       3     | 0.87086623E-03 | 0.43778104E+03 |    2.669
 BASOPT|       11     |       1     | 0.41682668E-03 | 0.15619104E+05 |   12.411
 BASOPT|       11     |       2     | 0.77063109E-03 | 0.65036320E+04 |    7.152
 BASOPT|       11     |       3     | 0.11517690E-02 | 0.38215488E+03 |    5.421
 BASOPT|       12     |       1     | 0.98047933E-03 | 0.11814884E+06 |   24.351
 BASOPT|       12     |       2     | 0.18526956E-02 | 0.16393223E+05 |   14.226
 BASOPT|       12     |       3     | 0.29759131E-02 | 0.35027210E+04 |   11.632
 BASOPT|       13     |       1     | 0.86644013E-03 | 0.31793228E+05 |   18.413
 BASOPT|       13     |       2     | 0.14058934E-02 | 0.86107759E+04 |    9.750
 BASOPT|       13     |       3     | 0.21048211E-02 | 0.49363282E+03 |    8.362
 BASOPT|       14     |       1     | 0.89929834E-03 | 0.11859778E+06 |   32.619
 BASOPT|       14     |       2     | 0.16720402E-02 | 0.26681000E+05 |   19.767
 BASOPT|       14     |       3     | 0.27056955E-02 | 0.44147748E+04 |   15.647
 BASOPT|       15     |       1     | 0.99860637E-03 | 0.24073504E+04 |    4.378
 BASOPT|       15     |       2     | 0.21590273E-02 | 0.94317466E+03 |    2.559
 BASOPT|       15     |       3     | 0.27967432E-02 | 0.46909883E+03 |    1.942
 BASOPT|       16     |       1     | 0.60613687E-03 | 0.87087652E+04 |    3.855
 BASOPT|       16     |       2     | 0.11889563E-02 | 0.10997195E+04 |    2.083
 BASOPT|       16     |       3     | 0.16520960E-02 | 0.30985266E+03 |    1.747
 BASOPT|       17     |       1     | 0.75290974E-03 | 0.87459737E+04 |    3.841
 BASOPT|       17     |       2     | 0.13661173E-02 | 0.11727123E+04 |    2.101
 BASOPT|       17     |       3     | 0.19671395E-02 | 0.34767981E+03 |    1.826
 BASOPT|       18     |       1     | 0.95642617E-03 | 0.26890790E+05 |    7.001
 BASOPT|       18     |       2     | 0.14860553E-02 | 0.90945166E+04 |    3.881
 BASOPT|       18     |       3     | 0.23306932E-02 | 0.54832779E+03 |    3.253
 BASOPT|       19     |       1     | 0.52891472E-03 | 0.13594917E+05 |    3.063
 BASOPT|       19     |       2     | 0.87757755E-03 | 0.16209423E+04 |    1.736
 BASOPT|       19     |       3     | 0.13016169E-02 | 0.58033172E+03 |    1.575
 BASOPT|       20     |       1     | 0.59751494E-03 | 0.10652905E+05 |    5.409
 BASOPT|       20     |       2     | 0.10352381E-02 | 0.13599440E+04 |    2.865
 BASOPT|       20     |       3     | 0.15090860E-02 | 0.40705368E+03 |    2.536
 BASOPT|       21     |       1     | 0.22044492E-03 | 0.76851754E+04 |    3.124
 BASOPT|       21     |       2     | 0.43518840E-03 | 0.94043350E+03 |    1.751
 BASOPT|       21     |       3     | 0.57951049E-03 | 0.79709065E+02 |    1.545
 BASOPT|       22     |       1     | 0.58376054E-03 | 0.13061416E+04 |    0.638
 BASOPT|       22     |       2     | 0.95484912E-03 | 0.56701871E+03 |    0.479
 BASOPT|       22     |       3     | 0.17410444E-02 | 0.27368745E+03 |    0.362
 BASOPT|       23     |       1     | 0.27017550E-03 | 0.56137069E+03 |    0.427
 BASOPT|       23     |       2     | 0.33833646E-03 | 0.20102269E+03 |    0.268
 BASOPT|       23     |       3     | 0.38425741E-03 | 0.18697339E+03 |    0.265
 BASOPT|       24     |       1     | 0.92448119E-03 | 0.15219255E+05 |    5.840
 BASOPT|       24     |       2     | 0.16215385E-02 | 0.18895753E+04 |    3.261
 BASOPT|       24     |       3     | 0.24351237E-02 | 0.97565699E+03 |    2.592
 BASOPT|       25     |       1     | 0.58359276E-03 | 0.60148920E+04 |    1.918
 BASOPT|       25     |       2     | 0.96113874E-03 | 0.95868637E+03 |    1.128
 BASOPT|       25     |       3     | 0.14764681E-02 | 0.33739615E+03 |    1.036
 BASOPT|       26     |       1     | 0.55287657E-03 | 0.85961759E+04 |    1.648
 BASOPT|       26     |       2     | 0.89950329E-03 | 0.96515985E+03 |    0.948
 BASOPT|       26     |       3     | 0.13797733E-02 | 0.29368764E+03 |    0.786
 BASOPT|       27     |       1     | 0.53134534E-03 | 0.10932346E+05 |    0.832
 BASOPT|       27     |       2     | 0.76611495E-03 | 0.88281114E+03 |    0.477
 BASOPT|       27     |       3     | 0.93855342E-03 | 0.85867306E+02 |    0.480
 BASOPT|       28     |       1     | 0.42327114E-03 | 0.76992337E+04 |    0.329
 BASOPT|       28     |       2     | 0.58481234E-03 | 0.63515271E+03 |    0.251
 BASOPT|       28     |       3     | 0.69074905E-03 | 0.64558813E+02 |    0.229
 BASOPT|       29     |       1     | 0.35567970E-03 | 0.64720002E+04 |    1.360
 BASOPT|       29     |       2     | 0.55378527E-03 | 0.17629580E+04 |    0.825
 BASOPT|       29     |       3     | 0.10739408E-02 | 0.49847346E+03 |    0.712
 BASOPT|       30     |       1     | 0.39624420E-03 | 0.14290503E+04 |    0.428
 BASOPT|       30     |       2     | 0.54431083E-03 | 0.65000885E+03 |    0.299
 BASOPT|       30     |       3     | 0.66948000E-03 | 0.67551172E+02 |    0.254
 BASOPT|       31     |       1     | 0.44921681E-03 | 0.77112223E+04 |    1.383
 BASOPT|       31     |       2     | 0.77875559E-03 | 0.11641155E+04 |    0.864
 BASOPT|       31     |       3     | 0.16035131E-02 | 0.63865392E+03 |    0.726
 BASOPT|       32     |       1     | 0.76745085E-03 | 0.94381243E+04 |    1.791
 BASOPT|       32     |       2     | 0.12658029E-02 | 0.20413589E+04 |    0.975
 BASOPT|       32     |       3     | 0.19306390E-02 | 0.93438224E+03 |    0.857
 BASOPT|       33     |       1     | 0.70602055E-03 | 0.13624473E+05 |    3.115
 BASOPT|       33     |       2     | 0.13372653E-02 | 0.45558056E+04 |    1.678
 BASOPT|       33     |       3     | 0.21757233E-02 | 0.13147987E+04 |    1.326
 BASOPT|       34     |       1     | 0.56601300E-03 | 0.39143385E+04 |    0.821
 BASOPT|       34     |       2     | 0.87577422E-03 | 0.11224101E+04 |    0.567
 BASOPT|       34     |       3     | 0.16886605E-02 | 0.54756216E+03 |    0.442
 BASOPT|       35     |       1     | 0.59019117E-03 | 0.20369861E+05 |    1.463
 BASOPT|       35     |       2     | 0.92993654E-03 | 0.25500437E+04 |    0.812
 BASOPT|       35     |       3     | 0.16399930E-02 | 0.94166977E+03 |    0.797
 BASOPT|       36     |       1     | 0.94509786E-03 | 0.27143146E+05 |    4.156
 BASOPT|       36     |       2     | 0.13649094E-02 | 0.36877384E+04 |    2.174
 BASOPT|       36     |       3     | 0.18731976E-02 | 0.79002415E+03 |    1.882
 BASOPT|       37     |       1     | 0.31274904E-03 | 0.40616910E+04 |    0.460
 BASOPT|       37     |       2     | 0.50494649E-03 | 0.18763266E+04 |    0.273
 BASOPT|       37     |       3     | 0.13127501E-02 | 0.92499263E+03 |    0.298
 BASOPT|       38     |       1     | 0.51614516E-03 | 0.50810733E+04 |    1.861
 BASOPT|       38     |       2     | 0.10317928E-02 | 0.24084000E+04 |    1.047
 BASOPT|       38     |       3     | 0.19464692E-02 | 0.90361569E+03 |    0.807
 BASOPT|       39     |       1     | 0.63195875E-03 | 0.47391274E+04 |    1.857
 BASOPT|       39     |       2     | 0.10648242E-02 | 0.26884793E+04 |    1.011
 BASOPT|       39     |       3     | 0.15278818E-02 | 0.96950811E+03 |    0.879
 BASOPT|       40     |       1     | 0.68102650E-03 | 0.16611703E+05 |    1.626
 BASOPT|       40     |       2     | 0.88229569E-03 | 0.23029947E+04 |    0.948
 BASOPT|       40     |       3     | 0.10269473E-02 | 0.97164103E+02 |    0.816
 BASOPT|       41     |       1     | 0.89920958E-03 | 0.27915294E+05 |    4.149
 BASOPT|       41     |       2     | 0.11697159E-02 | 0.30712628E+04 |    2.293
 BASOPT|       41     |       3     | 0.15955996E-02 | 0.16597348E+03 |    1.857
 BASOPT|       42     |       1     | 0.45426346E-03 | 0.11941824E+04 |    1.020
 BASOPT|       42     |       2     | 0.65222707E-03 | 0.40896851E+03 |    0.581
 BASOPT|       42     |       3     | 0.89797497E-03 | 0.30523375E+03 |    0.540
 BASOPT| -----------------------------------------------------------------------
 BASOPT| Total residuum value: -.10369667E+05

 BASOPT| Information at iteration number:     200
 BASOPT| Training set | Combination | Rho difference | Condition num. | Time
 BASOPT| -----------------------------------------------------------------------
 BASOPT|        1     |       1     | 0.22389730E-03 | 0.20776709E+05 |   17.947
 BASOPT|        1     |       2     | 0.64908014E-03 | 0.26556736E+04 |   10.176
 BASOPT|        1     |       3     | 0.87080679E-03 | 0.28121892E+03 |    8.543
 BASOPT|        2     |       1     | 0.57603870E-03 | 0.16618442E+05 |    5.476
 BASOPT|        2     |       2     | 0.11356469E-02 | 0.10482575E+05 |    3.072
 BASOPT|        2     |       3     | 0.22717704E-02 | 0.48224692E+03 |    2.415
 BASOPT|        3     |       1     | 0.72888778E-03 | 0.30241230E+05 |   54.641
 BASOPT|        3     |       2     | 0.15142008E-02 | 0.39387349E+04 |   27.817
 BASOPT|        3     |       3     | 0.23028358E-02 | 0.10444051E+04 |   24.361
 BASOPT|        4     |       1     | 0.43753820E-03 | 0.24989314E+05 |   17.989
 BASOPT|        4     |       2     | 0.83926969E-03 | 0.66187956E+04 |    9.787
 BASOPT|        4     |       3     | 0.19324199E-02 | 0.37744747E+03 |    8.239
 BASOPT|        5     |       1     | 0.53229267E-03 | 0.13489867E+04 |    3.729
 BASOPT|        5     |       2     | 0.98378158E-03 | 0.73979316E+03 |    2.026
 BASOPT|        5     |       3     | 0.17496843E-02 | 0.25599310E+03 |    1.741
 BASOPT|        6     |       1     | 0.57400263E-03 | 0.75750100E+04 |   11.255
 BASOPT|        6     |       2     | 0.93175503E-03 | 0.29167926E+04 |    6.200
 BASOPT|        6     |       3     | 0.17819508E-02 | 0.48948594E+03 |    5.200
 BASOPT|        7     |       1     | 0.55583784E-03 | 0.40178530E+05 |   18.119
 BASOPT|        7     |       2     | 0.10456956E-02 | 0.31883534E+04 |   11.084
 BASOPT|        7     |       3     | 0.19693449E-02 | 0.36047677E+03 |    8.495
 BASOPT|        8     |       1     | 0.12679307E-03 | 0.20898173E+04 |    2.879
 BASOPT|        8     |       2     | 0.29955064E-03 | 0.43829623E+03 |    1.835
 BASOPT|        8     |       3     | 0.37918554E-03 | 0.66963338E+02 |    1.528
 BASOPT|        9     |       1     | 0.35213064E-03 | 0.27278431E+05 |    6.068
 BASOPT|        9     |       2     | 0.53820690E-03 | 0.92279592E+04 |    3.569
 BASOPT|        9     |       3     | 0.86147153E-03 | 0.50305597E+03 |    3.125
 BASOPT|       10     |       1     | 0.36727355E-03 | 0.23150433E+05 |   10.922
 BASOPT|       10     |       2     | 0.71991865E-03 | 0.42105913E+04 |    6.159
 BASOPT|       10     |       3     | 0.87086623E-03 | 0.43778104E+03 |    5.327
 BASOPT|       11     |       1     | 0.41372051E-03 | 0.14154785E+05 |   24.706
 BASOPT|       11     |       2     | 0.76457013E-03 | 0.65154858E+04 |   14.533
 BASOPT|       11     |       3     | 0.11517690E-02 | 0.38215488E+03 |   10.852
 BASOPT|       12     |       1     | 0.97617014E-03 | 0.93425935E+05 |   49.037
 BASOPT|       12     |       2     | 0.18551178E-02 | 0.16737629E+05 |   28.647
 BASOPT|       12     |       3     | 0.29759131E-02 | 0.35027210E+04 |   23.527
 BASOPT|       13     |       1     | 0.86177314E-03 | 0.32639666E+05 |   37.079
 BASOPT|       13     |       2     | 0.14247800E-02 | 0.93079497E+04 |   19.743
 BASOPT|       13     |       3     | 0.21048211E-02 | 0.49363282E+03 |   16.744
 BASOPT|       14     |       1     | 0.89455495E-03 | 0.10996022E+06 |   65.969
 BASOPT|       14     |       2     | 0.16694317E-02 | 0.30454916E+05 |   39.592
 BASOPT|       14     |       3     | 0.27056955E-02 | 0.44147748E+04 |   31.729
 BASOPT|       15     |       1     | 0.99909873E-03 | 0.23303385E+04 |    8.815
 BASOPT|       15     |       2     | 0.21601632E-02 | 0.93181917E+03 |    5.043
 BASOPT|       15     |       3     | 0.27967432E-02 | 0.46909883E+03 |    3.903
 BASOPT|       16     |       1     | 0.60618371E-03 | 0.79747177E+04 |    7.745
 BASOPT|       16     |       2     | 0.11821366E-02 | 0.10885426E+04 |    4.184
 BASOPT|       16     |       3     | 0.16520960E-02 | 0.30985266E+03 |    3.505
 BASOPT|       17     |       1     | 0.75256097E-03 | 0.80287599E+04 |    7.725
 BASOPT|       17     |       2     | 0.13625273E-02 | 0.11741866E+04 |    4.200
 BASOPT|       17     |       3     | 0.19452705E-02 | 0.35504518E+03 |    3.650
 BASOPT|       18     |       1     | 0.95584928E-03 | 0.28314173E+05 |   14.086
 BASOPT|       18     |       2     | 0.14918180E-02 | 0.97315921E+04 |    7.770
 BASOPT|       18     |       3     | 0.23306932E-02 | 0.54832779E+03 |    6.487
 BASOPT|       19     |       1     | 0.52899841E-03 | 0.13159119E+05 |    6.158
 BASOPT|       19     |       2     | 0.87656501E-03 | 0.16153710E+04 |    3.469
 BASOPT|       19     |       3     | 0.13016169E-02 | 0.58033172E+03 |    3.151
 BASOPT|       20     |       1     | 0.59750172E-03 | 0.10187271E+05 |   10.777
 BASOPT|       20     |       2     | 0.10323001E-02 | 0.13819312E+04 |    5.751
 BASOPT|       20     |       3     | 0.14999734E-02 | 0.41222024E+03 |    5.038
 BASOPT|       21     |       1     | 0.21923551E-03 | 0.70911332E+04 |    6.279
 BASOPT|       21     |       2     | 0.43098228E-03 | 0.94043350E+03 |    3.494
 BASOPT|       21     |       3     | 0.57951049E-03 | 0.79709065E+02 |    3.105
 BASOPT|       22     |       1     | 0.59188105E-03 | 0.13404981E+04 |    1.283
 BASOPT|       22     |       2     | 0.97704444E-03 | 0.59277568E+03 |    0.953
 BASOPT|       22     |       3     | 0.17638995E-02 | 0.27857231E+03 |    0.729
 BASOPT|       23     |       1     | 0.27017550E-03 | 0.56137069E+03 |    0.855
 BASOPT|       23     |       2     | 0.33833646E-03 | 0.20102269E+03 |    0.542
 BASOPT|       23     |       3     | 0.38425741E-03 | 0.18697339E+03 |    0.530
 BASOPT|       24     |       1     | 0.92760709E-03 | 0.14742923E+05 |   11.746
 BASOPT|       24     |       2     | 0.16181461E-02 | 0.19556819E+04 |    6.546
 BASOPT|       24     |       3     | 0.24211090E-02 | 0.99548064E+03 |    5.190
 BASOPT|       25     |       1     | 0.58454886E-03 | 0.55849327E+04 |    3.863
 BASOPT|       25     |       2     | 0.97036059E-03 | 0.98626747E+03 |    2.267
 BASOPT|       25     |       3     | 0.14787328E-02 | 0.34279253E+03 |    2.075
 BASOPT|       26     |       1     | 0.55287657E-03 | 0.86112828E+04 |    3.312
 BASOPT|       26     |       2     | 0.89446756E-03 | 0.99817246E+03 |    1.903
 BASOPT|       26     |       3     | 0.13564366E-02 | 0.30478486E+03 |    1.579
 BASOPT|       27     |       1     | 0.53134534E-03 | 0.10946172E+05 |    1.670
 BASOPT|       27     |       2     | 0.76786303E-03 | 0.91074095E+03 |    0.958
 BASOPT|       27     |       3     | 0.93793978E-03 | 0.87477112E+02 |    0.956
 BASOPT|       28     |       1     | 0.42327114E-03 | 0.76992337E+04 |    0.661
 BASOPT|       28     |       2     | 0.58481234E-03 | 0.63515271E+03 |    0.499
 BASOPT|       28     |       3     | 0.69074905E-03 | 0.64558813E+02 |    0.461
 BASOPT|       29     |       1     | 0.35450406E-03 | 0.60821377E+04 |    2.708
 BASOPT|       29     |       2     | 0.54943586E-03 | 0.17596727E+04 |    1.646
 BASOPT|       29     |       3     | 0.10739408E-02 | 0.49847346E+03 |    1.414
 BASOPT|       30     |       1     | 0.39624420E-03 | 0.14290503E+04 |    0.857
 BASOPT|       30     |       2     | 0.54431083E-03 | 0.65000885E+03 |    0.600
 BASOPT|       30     |       3     | 0.66948000E-03 | 0.67551172E+02 |    0.512
 BASOPT|       31     |       1     | 0.46202683E-03 | 0.83632821E+04 |    2.773
 BASOPT|       31     |       2     | 0.78238108E-03 | 0.11616025E+04 |    1.729
 BASOPT|       31     |       3     | 0.16035131E-02 | 0.63865392E+03 |    1.463
 BASOPT|       32     |       1     | 0.76745085E-03 | 0.94171185E+04 |    3.607
 BASOPT|       32     |       2     | 0.12799390E-02 | 0.20811112E+04 |    1.960
 BASOPT|       32     |       3     | 0.19361779E-02 | 0.95098053E+03 |    1.722
 BASOPT|       33     |       1     | 0.70602055E-03 | 0.13597814E+05 |    6.240
 BASOPT|       33     |       2     | 0.13484271E-02 | 0.46444500E+04 |    3.356
 BASOPT|       33     |       3     | 0.21903611E-02 | 0.13409713E+04 |    2.654
 BASOPT|       34     |       1     | 0.56601300E-03 | 0.39102551E+04 |    1.648
 BASOPT|       34     |       2     | 0.89001377E-03 | 0.11405977E+04 |    1.131
 BASOPT|       34     |       3     | 0.16999253E-02 | 0.55806601E+03 |    0.889
 BASOPT|       35     |       1     | 0.59019117E-03 | 0.20369861E+05 |    2.934
 BASOPT|       35     |       2     | 0.92993654E-03 | 0.25500437E+04 |    1.625
 BASOPT|       35     |       3     | 0.16399930E-02 | 0.94166977E+03 |    1.598
 BASOPT|       36     |       1     | 0.94509786E-03 | 0.27143146E+05 |    8.351
 BASOPT|       36     |       2     | 0.13649094E-02 | 0.36877384E+04 |    4.367
 BASOPT|       36     |       3     | 0.18731976E-02 | 0.79002415E+03 |    3.770
 BASOPT|       37     |       1     | 0.31274904E-03 | 0.40616910E+04 |    0.927
 BASOPT|       37     |       2     | 0.50494649E-03 | 0.18763266E+04 |    0.549
 BASOPT|       37     |       3     | 0.13127501E-02 | 0.92499263E+03 |    0.595
 BASOPT|       38     |       1     | 0.51614516E-03 | 0.50810733E+04 |    3.750
 BASOPT|       38     |       2     | 0.10317928E-02 | 0.24084000E+04 |    2.084
 BASOPT|       38     |       3     | 0.19464692E-02 | 0.90361569E+03 |    1.614
 BASOPT|       39     |       1     | 0.63195875E-03 | 0.47391274E+04 |    3.734
 BASOPT|       39     |       2     | 0.10648242E-02 | 0.26884793E+04 |    2.026
 BASOPT|       39     |       3     | 0.15278818E-02 | 0.96950811E+03 |    1.751
 BASOPT|       40     |       1     | 0.68102650E-03 | 0.16611703E+05 |    3.267
 BASOPT|       40     |       2     | 0.88229569E-03 | 0.23029947E+04 |    1.887
 BASOPT|       40     |       3     | 0.10269473E-02 | 0.97164103E+02 |    1.632
 BASOPT|       41     |       1     | 0.89920958E-03 | 0.27915294E+05 |    8.361
 BASOPT|       41     |       2     | 0.11697159E-02 | 0.30712628E+04 |    4.511
 BASOPT|       41     |       3     | 0.15955996E-02 | 0.16597348E+03 |    3.731
 BASOPT|       42     |       1     | 0.45426346E-03 | 0.11951272E+04 |    2.050
 BASOPT|       42     |       2     | 0.65160627E-03 | 0.41884518E+03 |    1.161
 BASOPT|       42     |       3     | 0.89008365E-03 | 0.31044908E+03 |    1.078
 BASOPT| -----------------------------------------------------------------------
 BASOPT| Total residuum value: -.10369655E+05

 BASOPT| Information at iteration number:     300
 BASOPT| Training set | Combination | Rho difference | Condition num. | Time
 BASOPT| -----------------------------------------------------------------------
 BASOPT|        1     |       1     | 0.22109608E-03 | 0.20544675E+05 |   27.520
 BASOPT|        1     |       2     | 0.63047446E-03 | 0.26389066E+04 |   15.593
 BASOPT|        1     |       3     | 0.88809022E-03 | 0.27704034E+03 |   13.060
 BASOPT|        2     |       1     | 0.58613822E-03 | 0.16221935E+05 |    8.362
 BASOPT|        2     |       2     | 0.11634809E-02 | 0.10273749E+05 |    4.699
 BASOPT|        2     |       3     | 0.23557970E-02 | 0.47271613E+03 |    3.692
 BASOPT|        3     |       1     | 0.73359889E-03 | 0.29934474E+05 |   83.836
 BASOPT|        3     |       2     | 0.15157798E-02 | 0.39303587E+04 |   42.990
 BASOPT|        3     |       3     | 0.24070223E-02 | 0.10132177E+04 |   36.968
 BASOPT|        4     |       1     | 0.44643822E-03 | 0.24716162E+05 |   27.581
 BASOPT|        4     |       2     | 0.84899343E-03 | 0.68244443E+04 |   14.931
 BASOPT|        4     |       3     | 0.18040124E-02 | 0.38272374E+03 |   12.317
 BASOPT|        5     |       1     | 0.53500442E-03 | 0.13441733E+04 |    5.692
 BASOPT|        5     |       2     | 0.98456295E-03 | 0.74032194E+03 |    3.093
 BASOPT|        5     |       3     | 0.19879707E-02 | 0.25599310E+03 |    2.649
 BASOPT|        6     |       1     | 0.57338080E-03 | 0.75119923E+04 |   17.161
 BASOPT|        6     |       2     | 0.91116012E-03 | 0.28788362E+04 |    9.457
 BASOPT|        6     |       3     | 0.17010718E-02 | 0.48473867E+03 |    7.887
 BASOPT|        7     |       1     | 0.55496745E-03 | 0.40197970E+05 |   27.758
 BASOPT|        7     |       2     | 0.10385132E-02 | 0.31889830E+04 |   17.072
 BASOPT|        7     |       3     | 0.19260897E-02 | 0.34416364E+03 |   12.991
 BASOPT|        8     |       1     | 0.12621595E-03 | 0.20884008E+04 |    4.412
 BASOPT|        8     |       2     | 0.28964448E-03 | 0.43928593E+03 |    2.795
 BASOPT|        8     |       3     | 0.38589177E-03 | 0.66963338E+02 |    2.332
 BASOPT|        9     |       1     | 0.35213064E-03 | 0.27278431E+05 |    9.252
 BASOPT|        9     |       2     | 0.53820690E-03 | 0.92279592E+04 |    5.398
 BASOPT|        9     |       3     | 0.86147153E-03 | 0.50305597E+03 |    4.732
 BASOPT|       10     |       1     | 0.36727355E-03 | 0.23150433E+05 |   16.599
 BASOPT|       10     |       2     | 0.71991865E-03 | 0.42105913E+04 |    9.389
 BASOPT|       10     |       3     | 0.87086623E-03 | 0.43778104E+03 |    8.087
 BASOPT|       11     |       1     | 0.41372051E-03 | 0.14154785E+05 |   37.590
 BASOPT|       11     |       2     | 0.76457013E-03 | 0.65154858E+04 |   22.348
 BASOPT|       11     |       3     | 0.11517690E-02 | 0.38215488E+03 |   16.587
 BASOPT|       12     |       1     | 0.97617014E-03 | 0.93425935E+05 |   75.311
 BASOPT|       12     |       2     | 0.18551178E-02 | 0.16737629E+05 |   43.918
 BASOPT|       12     |       3     | 0.29759131E-02 | 0.35027210E+04 |   36.249
 BASOPT|       13     |       1     | 0.86177314E-03 | 0.32639666E+05 |   56.899
 BASOPT|       13     |       2     | 0.14247800E-02 | 0.93079497E+04 |   30.432
 BASOPT|       13     |       3     | 0.21048211E-02 | 0.49363282E+03 |   25.538
 BASOPT|       14     |       1     | 0.89455495E-03 | 0.10996022E+06 |  101.575
 BASOPT|       14     |       2     | 0.16694317E-02 | 0.30454916E+05 |   60.337
 BASOPT|       14     |       3     | 0.27056955E-02 | 0.44147748E+04 |   48.709
 BASOPT|       15     |       1     | 0.99909873E-03 | 0.23303385E+04 |   13.463
 BASOPT|       15     |       2     | 0.21601632E-02 | 0.93181917E+03 |    7.600
 BASOPT|       15     |       3     | 0.27967432E-02 | 0.46909883E+03 |    5.953
 BASOPT|       16     |       1     | 0.60618371E-03 | 0.79747177E+04 |   11.820
 BASOPT|       16     |       2     | 0.11821366E-02 | 0.10885426E+04 |    6.375
 BASOPT|       16     |       3     | 0.16520960E-02 | 0.30985266E+03 |    5.330
 BASOPT|       17     |       1     | 0.75256097E-03 | 0.80432877E+04 |   11.842
 BASOPT|       17     |       2     | 0.13610964E-02 | 0.11670028E+04 |    6.388
 BASOPT|       17     |       3     | 0.19671395E-02 | 0.34767981E+03 |    5.563
 BASOPT|       18     |       1     | 0.95584928E-03 | 0.28314173E+05 |   21.570
 BASOPT|       18     |       2     | 0.14918180E-02 | 0.97315921E+04 |   11.845
 BASOPT|       18     |       3     | 0.23306932E-02 | 0.54832779E+03 |    9.833
 BASOPT|       19     |       1     | 0.52899841E-03 | 0.13159119E+05 |    9.420
 BASOPT|       19     |       2     | 0.87656501E-03 | 0.16153710E+04 |    5.270
 BASOPT|       19     |       3     | 0.13016169E-02 | 0.58033172E+03 |    4.783
 BASOPT|       20     |       1     | 0.59750172E-03 | 0.10183969E+05 |   16.367
 BASOPT|       20     |       2     | 0.10304886E-02 | 0.13578994E+04 |    8.747
 BASOPT|       20     |       3     | 0.15090860E-02 | 0.40705368E+03 |    7.615
 BASOPT|       21     |       1     | 0.21923551E-03 | 0.70911332E+04 |    9.573
 BASOPT|       21     |       2     | 0.43098228E-03 | 0.94043350E+03 |    5.302
 BASOPT|       21     |       3     | 0.57951049E-03 | 0.79709065E+02 |    4.728
 BASOPT|       22     |       1     | 0.59188105E-03 | 0.13395333E+04 |    1.955
 BASOPT|       22     |       2     | 0.95544156E-03 | 0.57409573E+03 |    1.444
 BASOPT|       22     |       3     | 0.17410444E-02 | 0.27368745E+03 |    1.120
 BASOPT|       23     |       1     | 0.27017550E-03 | 0.56137069E+03 |    1.305
 BASOPT|       23     |       2     | 0.33833646E-03 | 0.20102269E+03 |    0.836
 BASOPT|       23     |       3     | 0.38425741E-03 | 0.18697339E+03 |    0.809
 BASOPT|       24     |       1     | 0.92760709E-03 | 0.14732975E+05 |   18.000
 BASOPT|       24     |       2     | 0.16204752E-02 | 0.18937077E+04 |   10.006
 BASOPT|       24     |       3     | 0.24351237E-02 | 0.97565699E+03 |    7.903
 BASOPT|       25     |       1     | 0.58454886E-03 | 0.55918174E+04 |    5.905
 BASOPT|       25     |       2     | 0.95928952E-03 | 0.95910570E+03 |    3.456
 BASOPT|       25     |       3     | 0.14764681E-02 | 0.33739615E+03 |    3.155
 BASOPT|       26     |       1     | 0.55287657E-03 | 0.85961759E+04 |    5.046
 BASOPT|       26     |       2     | 0.89950329E-03 | 0.96515985E+03 |    2.893
 BASOPT|       26     |       3     | 0.13797733E-02 | 0.29368764E+03 |    2.410
 BASOPT|       27     |       1     | 0.53134534E-03 | 0.10932346E+05 |    2.538
 BASOPT|       27     |       2     | 0.76611495E-03 | 0.88281114E+03 |    1.462
 BASOPT|       27     |       3     | 0.93855342E-03 | 0.85867306E+02 |    1.442
 BASOPT|       28     |       1     | 0.42327114E-03 | 0.76992337E+04 |    1.014
 BASOPT|       28     |       2     | 0.58481234E-03 | 0.63515271E+03 |    0.760
 BASOPT|       28     |       3     | 0.69074905E-03 | 0.64558813E+02 |    0.707
 BASOPT|       29     |       1     | 0.35450406E-03 | 0.60821377E+04 |    4.126
 BASOPT|       29     |       2     | 0.54943586E-03 | 0.17596727E+04 |    2.511
 BASOPT|       29     |       3     | 0.10739408E-02 | 0.49847346E+03 |    2.153
 BASOPT|       30     |       1     | 0.39624420E-03 | 0.14290503E+04 |    1.312
 BASOPT|       30     |       2     | 0.54431083E-03 | 0.65000885E+03 |    0.906
 BASOPT|       30     |       3     | 0.66948000E-03 | 0.67551172E+02 |    0.783
 BASOPT|       31     |       1     | 0.46202683E-03 | 0.83632821E+04 |    4.210
 BASOPT|       31     |       2     | 0.78238108E-03 | 0.11616025E+04 |    2.620
 BASOPT|       31     |       3     | 0.16035131E-02 | 0.63865392E+03 |    2.223
 BASOPT|       32     |       1     | 0.76745085E-03 | 0.94381243E+04 |    5.510
 BASOPT|       32     |       2     | 0.12658029E-02 | 0.20413589E+04 |    2.984
 BASOPT|       32     |       3     | 0.19306390E-02 | 0.93438224E+03 |    2.620
 BASOPT|       33     |       1     | 0.70602055E-03 | 0.13624473E+05 |    9.554
 BASOPT|       33     |       2     | 0.13372653E-02 | 0.45558056E+04 |    5.109
 BASOPT|       33     |       3     | 0.21757233E-02 | 0.13147987E+04 |    4.058
 BASOPT|       34     |       1     | 0.56601300E-03 | 0.39143385E+04 |    2.523
 BASOPT|       34     |       2     | 0.87577422E-03 | 0.11224101E+04 |    1.722
 BASOPT|       34     |       3     | 0.16886605E-02 | 0.54756216E+03 |    1.366
 BASOPT|       35     |       1     | 0.59019117E-03 | 0.20369861E+05 |    4.486
 BASOPT|       35     |       2     | 0.92993654E-03 | 0.25500437E+04 |    2.482
 BASOPT|       35     |       3     | 0.16399930E-02 | 0.94166977E+03 |    2.425
 BASOPT|       36     |       1     | 0.94509786E-03 | 0.27143146E+05 |   12.734
 BASOPT|       36     |       2     | 0.13649094E-02 | 0.36877384E+04 |    6.647
 BASOPT|       36     |       3     | 0.18731976E-02 | 0.79002415E+03 |    5.725
 BASOPT|       37     |       1     | 0.31274904E-03 | 0.40616910E+04 |    1.409
 BASOPT|       37     |       2     | 0.50494649E-03 | 0.18763266E+04 |    0.837
 BASOPT|       37     |       3     | 0.13127501E-02 | 0.92499263E+03 |    0.902
 BASOPT|       38     |       1     | 0.51614516E-03 | 0.50810733E+04 |    5.728
 BASOPT|       38     |       2     | 0.10317928E-02 | 0.24084000E+04 |    3.157
 BASOPT|       38     |       3     | 0.19464692E-02 | 0.90361569E+03 |    2.466
 BASOPT|       39     |       1     | 0.63195875E-03 | 0.47391274E+04 |    5.723
 BASOPT|       39     |       2     | 0.10648242E-02 | 0.26884793E+04 |    3.099
 BASOPT|       39     |       3     | 0.15278818E-02 | 0.96950811E+03 |    2.666
 BASOPT|       40     |       1     | 0.68102650E-03 | 0.16611703E+05 |    5.012
 BASOPT|       40     |       2     | 0.88229569E-03 | 0.23029947E+04 |    2.874
 BASOPT|       40     |       3     | 0.10269473E-02 | 0.97164103E+02 |    2.493
 BASOPT|       41     |       1     | 0.89920958E-03 | 0.27915294E+05 |   12.768
 BASOPT|       41     |       2     | 0.11697159E-02 | 0.30712628E+04 |    6.777
 BASOPT|       41     |       3     | 0.15955996E-02 | 0.16597348E+03 |    5.674
 BASOPT|       42     |       1     | 0.45426346E-03 | 0.11941824E+04 |    3.122
 BASOPT|       42     |       2     | 0.65222707E-03 | 0.40896851E+03 |    1.763
 BASOPT|       42     |       3     | 0.89797497E-03 | 0.30523375E+03 |    1.626
 BASOPT| -----------------------------------------------------------------------
 BASOPT| Total residuum value: -.10369592E+05

 BASOPT| Information at iteration number:     400
 BASOPT| Training set | Combination | Rho difference | Condition num. | Time
 BASOPT| -----------------------------------------------------------------------
 BASOPT|        1     |       1     | 0.22389730E-03 | 0.20776709E+05 |   37.408
 BASOPT|        1     |       2     | 0.64908014E-03 | 0.26556736E+04 |   21.204
 BASOPT|        1     |       3     | 0.87080679E-03 | 0.28121892E+03 |   17.722
 BASOPT|        2     |       1     | 0.57603870E-03 | 0.16636153E+05 |   11.342
 BASOPT|        2     |       2     | 0.11500478E-02 | 0.10452562E+05 |    6.385
 BASOPT|        2     |       3     | 0.23082931E-02 | 0.47098591E+03 |    5.012
 BASOPT|        3     |       1     | 0.72823563E-03 | 0.28908538E+05 |  114.003
 BASOPT|        3     |       2     | 0.15101801E-02 | 0.38888392E+04 |   58.670
 BASOPT|        3     |       3     | 0.23028358E-02 | 0.10444051E+04 |   49.921
 BASOPT|        4     |       1     | 0.43753820E-03 | 0.24989314E+05 |   37.467
 BASOPT|        4     |       2     | 0.83926969E-03 | 0.66187956E+04 |   20.194
 BASOPT|        4     |       3     | 0.19324199E-02 | 0.37744747E+03 |   16.510
 BASOPT|        5     |       1     | 0.53229267E-03 | 0.13489867E+04 |    7.705
 BASOPT|        5     |       2     | 0.98378158E-03 | 0.73979316E+03 |    4.194
 BASOPT|        5     |       3     | 0.17496843E-02 | 0.25599310E+03 |    3.578
 BASOPT|        6     |       1     | 0.57400263E-03 | 0.75754740E+04 |   23.220
 BASOPT|        6     |       2     | 0.91511900E-03 | 0.28803732E+04 |   12.821
 BASOPT|        6     |       3     | 0.17571429E-02 | 0.48270660E+03 |   10.658
 BASOPT|        7     |       1     | 0.55774832E-03 | 0.35620227E+05 |   37.706
 BASOPT|        7     |       2     | 0.10454605E-02 | 0.31898269E+04 |   23.262
 BASOPT|        7     |       3     | 0.19693449E-02 | 0.36047677E+03 |   17.638
 BASOPT|        8     |       1     | 0.12679307E-03 | 0.20898173E+04 |    5.998
 BASOPT|        8     |       2     | 0.29955064E-03 | 0.43829623E+03 |    3.782
 BASOPT|        8     |       3     | 0.37918554E-03 | 0.66963338E+02 |    3.161
 BASOPT|        9     |       1     | 0.35213064E-03 | 0.27278431E+05 |   12.511
 BASOPT|        9     |       2     | 0.53820690E-03 | 0.92279592E+04 |    7.271
 BASOPT|        9     |       3     | 0.86147153E-03 | 0.50305597E+03 |    6.378
 BASOPT|       10     |       1     | 0.36727355E-03 | 0.23150433E+05 |   22.426
 BASOPT|       10     |       2     | 0.71991865E-03 | 0.42105913E+04 |   12.699
 BASOPT|       10     |       3     | 0.87086623E-03 | 0.43778104E+03 |   10.921
 BASOPT|       11     |       1     | 0.41372051E-03 | 0.14154785E+05 |   50.853
 BASOPT|       11     |       2     | 0.76457013E-03 | 0.65154858E+04 |   30.397
 BASOPT|       11     |       3     | 0.11517690E-02 | 0.38215488E+03 |   22.510
 BASOPT|       12     |       1     | 0.98127302E-03 | 0.81034382E+05 |  102.508
 BASOPT|       12     |       2     | 0.18609623E-02 | 0.16628809E+05 |   59.679
 BASOPT|       12     |       3     | 0.29759131E-02 | 0.35027210E+04 |   49.382
 BASOPT|       13     |       1     | 0.86177314E-03 | 0.32639666E+05 |   77.424
 BASOPT|       13     |       2     | 0.14247800E-02 | 0.93079497E+04 |   41.508
 BASOPT|       13     |       3     | 0.21048211E-02 | 0.49363282E+03 |   34.610
 BASOPT|       14     |       1     | 0.89711582E-03 | 0.11009429E+06 |  138.353
 BASOPT|       14     |       2     | 0.16718907E-02 | 0.30405898E+05 |   81.677
 BASOPT|       14     |       3     | 0.27056955E-02 | 0.44147748E+04 |   66.133
 BASOPT|       15     |       1     | 0.99909873E-03 | 0.23303385E+04 |   18.239
 BASOPT|       15     |       2     | 0.21601632E-02 | 0.93181917E+03 |   10.237
 BASOPT|       15     |       3     | 0.27967432E-02 | 0.46909883E+03 |    8.048
 BASOPT|       16     |       1     | 0.60618371E-03 | 0.79747177E+04 |   16.002
 BASOPT|       16     |       2     | 0.11821366E-02 | 0.10885426E+04 |    8.628
 BASOPT|       16     |       3     | 0.16520960E-02 | 0.30985266E+03 |    7.212
 BASOPT|       17     |       1     | 0.75256097E-03 | 0.80432877E+04 |   16.092
 BASOPT|       17     |       2     | 0.13610964E-02 | 0.11670028E+04 |    8.645
 BASOPT|       17     |       3     | 0.19671395E-02 | 0.34767981E+03 |    7.531
 BASOPT|       18     |       1     | 0.95741891E-03 | 0.28316411E+05 |   29.297
 BASOPT|       18     |       2     | 0.14935199E-02 | 0.97218400E+04 |   16.052
 BASOPT|       18     |       3     | 0.23306932E-02 | 0.54832779E+03 |   13.290
 BASOPT|       19     |       1     | 0.53110929E-03 | 0.11559561E+05 |   12.791
 BASOPT|       19     |       2     | 0.87765839E-03 | 0.16165489E+04 |    7.129
 BASOPT|       19     |       3     | 0.13016169E-02 | 0.58033172E+03 |    6.452
 BASOPT|       20     |       1     | 0.59750172E-03 | 0.10183969E+05 |   22.109
 BASOPT|       20     |       2     | 0.10304886E-02 | 0.13578994E+04 |   11.806
 BASOPT|       20     |       3     | 0.15090860E-02 | 0.40705368E+03 |   10.257
 BASOPT|       21     |       1     | 0.21923551E-03 | 0.70911332E+04 |   12.946
 BASOPT|       21     |       2     | 0.43098228E-03 | 0.94043350E+03 |    7.156
 BASOPT|       21     |       3     | 0.57951049E-03 | 0.79709065E+02 |    6.404
 BASOPT|       22     |       1     | 0.59188105E-03 | 0.13395333E+04 |    2.645
 BASOPT|       22     |       2     | 0.95544156E-03 | 0.57409573E+03 |    1.949
 BASOPT|       22     |       3     | 0.17410444E-02 | 0.27368745E+03 |    1.524
 BASOPT|       23     |       1     | 0.27017550E-03 | 0.56137069E+03 |    1.767
 BASOPT|       23     |       2     | 0.33833646E-03 | 0.20102269E+03 |    1.137
 BASOPT|       23     |       3     | 0.38425741E-03 | 0.18697339E+03 |    1.098
 BASOPT|       24     |       1     | 0.92760709E-03 | 0.14732975E+05 |   24.468
 BASOPT|       24     |       2     | 0.16204752E-02 | 0.18937077E+04 |   13.580
 BASOPT|       24     |       3     | 0.24351237E-02 | 0.97565699E+03 |   10.706
 BASOPT|       25     |       1     | 0.58454886E-03 | 0.55918174E+04 |    8.000
 BASOPT|       25     |       2     | 0.95928952E-03 | 0.95910570E+03 |    4.675
 BASOPT|       25     |       3     | 0.14764681E-02 | 0.33739615E+03 |    4.264
 BASOPT|       26     |       1     | 0.55287657E-03 | 0.85961759E+04 |    6.822
 BASOPT|       26     |       2     | 0.89950329E-03 | 0.96515985E+03 |    3.906
 BASOPT|       26     |       3     | 0.13797733E-02 | 0.29368764E+03 |    3.260
 BASOPT|       27     |       1     | 0.53134534E-03 | 0.10932346E+05 |    3.425
 BASOPT|       27     |       2     | 0.76611495E-03 | 0.88281114E+03 |    1.979
 BASOPT|       27     |       3     | 0.93855342E-03 | 0.85867306E+02 |    1.949
 BASOPT|       28     |       1     | 0.42327114E-03 | 0.76992337E+04 |    1.378
 BASOPT|       28     |       2     | 0.58481234E-03 | 0.63515271E+03 |    1.030
 BASOPT|       28     |       3     | 0.69074905E-03 | 0.64558813E+02 |    0.959
 BASOPT|       29     |       1     | 0.35512233E-03 | 0.60188033E+04 |    5.592
 BASOPT|       29     |       2     | 0.54761288E-03 | 0.17476269E+04 |    3.405
 BASOPT|       29     |       3     | 0.10739408E-02 | 0.49847346E+03 |    2.911
 BASOPT|       30     |       1     | 0.39624420E-03 | 0.14290503E+04 |    1.782
 BASOPT|       30     |       2     | 0.54431083E-03 | 0.65000885E+03 |    1.219
 BASOPT|       30     |       3     | 0.66948000E-03 | 0.67551172E+02 |    1.061
 BASOPT|       31     |       1     | 0.46239619E-03 | 0.68676089E+04 |    5.680
 BASOPT|       31     |       2     | 0.78559899E-03 | 0.11614573E+04 |    3.530
 BASOPT|       31     |       3     | 0.16035131E-02 | 0.63865392E+03 |    3.008
 BASOPT|       32     |       1     | 0.76874638E-03 | 0.88107349E+04 |    7.460
 BASOPT|       32     |       2     | 0.12650488E-02 | 0.20201216E+04 |    4.054
 BASOPT|       32     |       3     | 0.19306390E-02 | 0.93438224E+03 |    3.546
 BASOPT|       33     |       1     | 0.70906005E-03 | 0.13620410E+05 |   12.972
 BASOPT|       33     |       2     | 0.13417119E-02 | 0.44250626E+04 |    6.922
 BASOPT|       33     |       3     | 0.21757233E-02 | 0.13147987E+04 |    5.507
 BASOPT|       34     |       1     | 0.56744417E-03 | 0.36210072E+04 |    3.427
 BASOPT|       34     |       2     | 0.87607557E-03 | 0.11220176E+04 |    2.328
 BASOPT|       34     |       3     | 0.16886605E-02 | 0.54756216E+03 |    1.856
 BASOPT|       35     |       1     | 0.59504424E-03 | 0.18096073E+05 |    6.083
 BASOPT|       35     |       2     | 0.92960541E-03 | 0.25515503E+04 |    3.367
 BASOPT|       35     |       3     | 0.16399930E-02 | 0.94166977E+03 |    3.267
 BASOPT|       36     |       1     | 0.94525226E-03 | 0.24181709E+05 |   17.232
 BASOPT|       36     |       2     | 0.13626603E-02 | 0.37118464E+04 |    8.980
 BASOPT|       36     |       3     | 0.18731976E-02 | 0.79002415E+03 |    7.728
 BASOPT|       37     |       1     | 0.30902679E-03 | 0.40789833E+04 |    1.904
 BASOPT|       37     |       2     | 0.49985597E-03 | 0.18630218E+04 |    1.134
 BASOPT|       37     |       3     | 0.13127501E-02 | 0.92499263E+03 |    1.215
 BASOPT|       38     |       1     | 0.51941439E-03 | 0.51010027E+04 |    7.756
 BASOPT|       38     |       2     | 0.10202036E-02 | 0.24137897E+04 |    4.271
 BASOPT|       38     |       3     | 0.19464692E-02 | 0.90361569E+03 |    3.348
 BASOPT|       39     |       1     | 0.63342673E-03 | 0.47599231E+04 |    7.771
 BASOPT|       39     |       2     | 0.10634967E-02 | 0.27015846E+04 |    4.212
 BASOPT|       39     |       3     | 0.15278818E-02 | 0.96950811E+03 |    3.610
 BASOPT|       40     |       1     | 0.67994986E-03 | 0.15133928E+05 |    6.814
 BASOPT|       40     |       2     | 0.88167278E-03 | 0.23011893E+04 |    3.892
 BASOPT|       40     |       3     | 0.10269473E-02 | 0.97164103E+02 |    3.382
 BASOPT|       41     |       1     | 0.89943599E-03 | 0.25218166E+05 |   17.285
 BASOPT|       41     |       2     | 0.11736191E-02 | 0.30760363E+04 |    9.107
 BASOPT|       41     |       3     | 0.15955996E-02 | 0.16597348E+03 |    7.674
 BASOPT|       42     |       1     | 0.45426346E-03 | 0.11941824E+04 |    4.223
 BASOPT|       42     |       2     | 0.65222707E-03 | 0.40896851E+03 |    2.384
 BASOPT|       42     |       3     | 0.89797497E-03 | 0.30523375E+03 |    2.192
 BASOPT| -----------------------------------------------------------------------
 BASOPT| Total residuum value: -.10369677E+05

 BASOPT| Information at iteration number:     500
 BASOPT| Training set | Combination | Rho difference | Condition num. | Time
 BASOPT| -----------------------------------------------------------------------
 BASOPT|        1     |       1     | 0.22389730E-03 | 0.20776709E+05 |   47.564
 BASOPT|        1     |       2     | 0.64908014E-03 | 0.26556736E+04 |   26.903
 BASOPT|        1     |       3     | 0.87080679E-03 | 0.28121892E+03 |   22.483
 BASOPT|        2     |       1     | 0.57603870E-03 | 0.16636153E+05 |   14.388
 BASOPT|        2     |       2     | 0.11500478E-02 | 0.10452562E+05 |    8.100
 BASOPT|        2     |       3     | 0.23082931E-02 | 0.47098591E+03 |    6.363
 BASOPT|        3     |       1     | 0.72888778E-03 | 0.30241230E+05 |  144.817
 BASOPT|        3     |       2     | 0.15142008E-02 | 0.39387349E+04 |   74.686
 BASOPT|        3     |       3     | 0.23028358E-02 | 0.10444051E+04 |   63.069
 BASOPT|        4     |       1     | 0.43753820E-03 | 0.24989314E+05 |   47.496
 BASOPT|        4     |       2     | 0.83926969E-03 | 0.66187956E+04 |   25.522
 BASOPT|        4     |       3     | 0.19324199E-02 | 0.37744747E+03 |   20.770
 BASOPT|        5     |       1     | 0.53229267E-03 | 0.13494232E+04 |    9.734
 BASOPT|        5     |       2     | 0.98041452E-03 | 0.71551007E+03 |    5.305
 BASOPT|        5     |       3     | 0.17553529E-02 | 0.25240060E+03 |    4.516
 BASOPT|        6     |       1     | 0.57400263E-03 | 0.75754740E+04 |   29.378
 BASOPT|        6     |       2     | 0.91511900E-03 | 0.28803732E+04 |   16.243
 BASOPT|        6     |       3     | 0.17571429E-02 | 0.48270660E+03 |   13.484
 BASOPT|        7     |       1     | 0.55583784E-03 | 0.40178530E+05 |   47.867
 BASOPT|        7     |       2     | 0.10456956E-02 | 0.31883534E+04 |   29.575
 BASOPT|        7     |       3     | 0.19693449E-02 | 0.36047677E+03 |   22.380
 BASOPT|        8     |       1     | 0.12679307E-03 | 0.20898173E+04 |    7.618
 BASOPT|        8     |       2     | 0.29955064E-03 | 0.43829623E+03 |    4.787
 BASOPT|        8     |       3     | 0.37918554E-03 | 0.66963338E+02 |    4.009
 BASOPT|        9     |       1     | 0.35213064E-03 | 0.27278431E+05 |   15.800
 BASOPT|        9     |       2     | 0.53820690E-03 | 0.92279592E+04 |    9.170
 BASOPT|        9     |       3     | 0.86147153E-03 | 0.50305597E+03 |    8.039
 BASOPT|       10     |       1     | 0.36727355E-03 | 0.23150433E+05 |   28.338
 BASOPT|       10     |       2     | 0.71991865E-03 | 0.42105913E+04 |   16.043
 BASOPT|       10     |       3     | 0.87086623E-03 | 0.43778104E+03 |   13.796
 BASOPT|       11     |       1     | 0.41372051E-03 | 0.14154785E+05 |   64.310
 BASOPT|       11     |       2     | 0.76457013E-03 | 0.65154858E+04 |   38.573
 BASOPT|       11     |       3     | 0.11517690E-02 | 0.38215488E+03 |   28.549
 BASOPT|       12     |       1     | 0.97617014E-03 | 0.93425935E+05 |  130.269
 BASOPT|       12     |       2     | 0.18551178E-02 | 0.16737629E+05 |   75.781
 BASOPT|       12     |       3     | 0.29759131E-02 | 0.35027210E+04 |   62.779
 BASOPT|       13     |       1     | 0.86177314E-03 | 0.32639666E+05 |   98.342
 BASOPT|       13     |       2     | 0.14247800E-02 | 0.93079497E+04 |   52.764
 BASOPT|       13     |       3     | 0.21048211E-02 | 0.49363282E+03 |   43.871
 BASOPT|       14     |       1     | 0.89455495E-03 | 0.10996022E+06 |  175.886
 BASOPT|       14     |       2     | 0.16694317E-02 | 0.30454916E+05 |  103.313
 BASOPT|       14     |       3     | 0.27056955E-02 | 0.44147748E+04 |   83.741
 BASOPT|       15     |       1     | 0.99909873E-03 | 0.23315545E+04 |   23.073
 BASOPT|       15     |       2     | 0.21466221E-02 | 0.90269514E+03 |   12.906
 BASOPT|       15     |       3     | 0.27916483E-02 | 0.46424523E+03 |   10.167
 BASOPT|       16     |       1     | 0.60618371E-03 | 0.79788315E+04 |   20.251
 BASOPT|       16     |       2     | 0.11755426E-02 | 0.10831662E+04 |   10.910
 BASOPT|       16     |       3     | 0.16554322E-02 | 0.30704591E+03 |    9.120
 BASOPT|       17     |       1     | 0.75256097E-03 | 0.80432877E+04 |   20.430
 BASOPT|       17     |       2     | 0.13610964E-02 | 0.11670028E+04 |   10.954
 BASOPT|       17     |       3     | 0.19671395E-02 | 0.34767981E+03 |    9.539
 BASOPT|       18     |       1     | 0.95584928E-03 | 0.28314173E+05 |   37.196
 BASOPT|       18     |       2     | 0.14918180E-02 | 0.97315921E+04 |   20.337
 BASOPT|       18     |       3     | 0.23306932E-02 | 0.54832779E+03 |   16.815
 BASOPT|       19     |       1     | 0.52899841E-03 | 0.13159119E+05 |   16.225
 BASOPT|       19     |       2     | 0.87656501E-03 | 0.16153710E+04 |    9.026
 BASOPT|       19     |       3     | 0.13016169E-02 | 0.58033172E+03 |    8.136
 BASOPT|       20     |       1     | 0.59750172E-03 | 0.10183969E+05 |   27.918
 BASOPT|       20     |       2     | 0.10304886E-02 | 0.13578994E+04 |   14.902
 BASOPT|       20     |       3     | 0.15090860E-02 | 0.40705368E+03 |   12.937
 BASOPT|       21     |       1     | 0.21923551E-03 | 0.70911332E+04 |   16.362
 BASOPT|       21     |       2     | 0.43098228E-03 | 0.94043350E+03 |    9.040
 BASOPT|       21     |       3     | 0.57951049E-03 | 0.79709065E+02 |    8.097
 BASOPT|       22     |       1     | 0.59188105E-03 | 0.13395333E+04 |    3.344
 BASOPT|       22     |       2     | 0.95544156E-03 | 0.57409573E+03 |    2.461
 BASOPT|       22     |       3     | 0.17410444E-02 | 0.27368745E+03 |    1.934
 BASOPT|       23     |       1     | 0.27017550E-03 | 0.56071851E+03 |    2.238
 BASOPT|       23     |       2     | 0.33219326E-03 | 0.19340965E+03 |    1.444
 BASOPT|       23     |       3     | 0.38015809E-03 | 0.18153745E+03 |    1.390
 BASOPT|       24     |       1     | 0.92760709E-03 | 0.14732975E+05 |   31.074
 BASOPT|       24     |       2     | 0.16204752E-02 | 0.18937077E+04 |   17.237
 BASOPT|       24     |       3     | 0.24351237E-02 | 0.97565699E+03 |   13.573
 BASOPT|       25     |       1     | 0.58454886E-03 | 0.55918174E+04 |   10.120
 BASOPT|       25     |       2     | 0.95928952E-03 | 0.95910570E+03 |    5.912
 BASOPT|       25     |       3     | 0.14764681E-02 | 0.33739615E+03 |    5.385
 BASOPT|       26     |       1     | 0.55287657E-03 | 0.85961759E+04 |    8.615
 BASOPT|       26     |       2     | 0.89950329E-03 | 0.96515985E+03 |    4.926
 BASOPT|       26     |       3     | 0.13797733E-02 | 0.29368764E+03 |    4.121
 BASOPT|       27     |       1     | 0.53134534E-03 | 0.10932346E+05 |    4.319
 BASOPT|       27     |       2     | 0.76611495E-03 | 0.88281114E+03 |    2.503
 BASOPT|       27     |       3     | 0.93855342E-03 | 0.85867306E+02 |    2.454
 BASOPT|       28     |       1     | 0.42327114E-03 | 0.76992337E+04 |    1.748
 BASOPT|       28     |       2     | 0.58481234E-03 | 0.63515271E+03 |    1.305
 BASOPT|       28     |       3     | 0.69074905E-03 | 0.64558813E+02 |    1.219
 BASOPT|       29     |       1     | 0.35450406E-03 | 0.60821377E+04 |    7.085
 BASOPT|       29     |       2     | 0.54943586E-03 | 0.17596727E+04 |    4.320
 BASOPT|       29     |       3     | 0.10739408E-02 | 0.49847346E+03 |    3.683
 BASOPT|       30     |       1     | 0.39624420E-03 | 0.14290522E+04 |    2.262
 BASOPT|       30     |       2     | 0.53686563E-03 | 0.62705518E+03 |    1.536
 BASOPT|       30     |       3     | 0.66209380E-03 | 0.66065629E+02 |    1.340
 BASOPT|       31     |       1     | 0.46202683E-03 | 0.83632821E+04 |    7.167
 BASOPT|       31     |       2     | 0.78238108E-03 | 0.11616025E+04 |    4.452
 BASOPT|       31     |       3     | 0.16035131E-02 | 0.63865392E+03 |    3.795
 BASOPT|       32     |       1     | 0.76745085E-03 | 0.94381243E+04 |    9.437
 BASOPT|       32     |       2     | 0.12658029E-02 | 0.20413589E+04 |    5.140
 BASOPT|       32     |       3     | 0.19306390E-02 | 0.93438224E+03 |    4.480
 BASOPT|       33     |       1     | 0.70602055E-03 | 0.13624473E+05 |   16.466
 BASOPT|       33     |       2     | 0.13372653E-02 | 0.45558056E+04 |    8.776
 BASOPT|       33     |       3     | 0.21757233E-02 | 0.13147987E+04 |    6.991
 BASOPT|       34     |       1     | 0.56601300E-03 | 0.39143385E+04 |    4.352
 BASOPT|       34     |       2     | 0.87577422E-03 | 0.11224101E+04 |    2.944
 BASOPT|       34     |       3     | 0.16886605E-02 | 0.54756216E+03 |    2.356
 BASOPT|       35     |       1     | 0.59019117E-03 | 0.20369861E+05 |    7.713
 BASOPT|       35     |       2     | 0.92993654E-03 | 0.25500437E+04 |    4.272
 BASOPT|       35     |       3     | 0.16399930E-02 | 0.94166977E+03 |    4.117
 BASOPT|       36     |       1     | 0.94509786E-03 | 0.27143146E+05 |   21.792
 BASOPT|       36     |       2     | 0.13649094E-02 | 0.36877384E+04 |   11.338
 BASOPT|       36     |       3     | 0.18731976E-02 | 0.79002415E+03 |    9.757
 BASOPT|       37     |       1     | 0.31274904E-03 | 0.40616910E+04 |    2.402
 BASOPT|       37     |       2     | 0.50494649E-03 | 0.18763266E+04 |    1.434
 BASOPT|       37     |       3     | 0.13127501E-02 | 0.92499263E+03 |    1.528
 BASOPT|       38     |       1     | 0.51614516E-03 | 0.50810733E+04 |    9.808
 BASOPT|       38     |       2     | 0.10317928E-02 | 0.24084000E+04 |    5.398
 BASOPT|       38     |       3     | 0.19464692E-02 | 0.90361569E+03 |    4.250
 BASOPT|       39     |       1     | 0.63195875E-03 | 0.47421688E+04 |    9.862
 BASOPT|       39     |       2     | 0.10633098E-02 | 0.26623129E+04 |    5.353
 BASOPT|       39     |       3     | 0.15344196E-02 | 0.95536308E+03 |    4.564
 BASOPT|       40     |       1     | 0.68102650E-03 | 0.16611703E+05 |    8.651
 BASOPT|       40     |       2     | 0.88229569E-03 | 0.23029947E+04 |    4.928
 BASOPT|       40     |       3     | 0.10269473E-02 | 0.97164103E+02 |    4.290
 BASOPT|       41     |       1     | 0.89920958E-03 | 0.27917724E+05 |   21.856
 BASOPT|       41     |       2     | 0.11654896E-02 | 0.30589125E+04 |   11.472
 BASOPT|       41     |       3     | 0.15899852E-02 | 0.16290278E+03 |    9.687
 BASOPT|       42     |       1     | 0.45426346E-03 | 0.11945298E+04 |    5.337
 BASOPT|       42     |       2     | 0.65255596E-03 | 0.40340707E+03 |    3.005
 BASOPT|       42     |       3     | 0.90423230E-03 | 0.29975247E+03 |    2.765
 BASOPT| -----------------------------------------------------------------------
 BASOPT| Total residuum value: -.10369681E+05

 BASOPT| Information at iteration number:     600
 BASOPT| Training set | Combination | Rho difference | Condition num. | Time
 BASOPT| -----------------------------------------------------------------------
 BASOPT|        1     |       1     | 0.25243654E-03 | 0.18819960E+05 |   57.803
 BASOPT|        1     |       2     | 0.64144654E-03 | 0.26244059E+04 |   32.717
 BASOPT|        1     |       3     | 0.86120349E-03 | 0.28108594E+03 |   27.297
 BASOPT|        2     |       1     | 0.57011383E-03 | 0.16555830E+05 |   17.478
 BASOPT|        2     |       2     | 0.11360363E-02 | 0.10388210E+05 |    9.836
 BASOPT|        2     |       3     | 0.22684612E-02 | 0.47313634E+03 |    7.728
 BASOPT|        3     |       1     | 0.73902105E-03 | 0.22378355E+05 |  176.072
 BASOPT|        3     |       2     | 0.15017810E-02 | 0.39027812E+04 |   90.915
 BASOPT|        3     |       3     | 0.22984754E-02 | 0.10429457E+04 |   76.344
 BASOPT|        4     |       1     | 0.44807617E-03 | 0.24768028E+05 |   57.631
 BASOPT|        4     |       2     | 0.83123299E-03 | 0.65238580E+04 |   30.891
 BASOPT|        4     |       3     | 0.19186154E-02 | 0.37497200E+03 |   25.072
 BASOPT|        5     |       1     | 0.52991086E-03 | 0.13449462E+04 |   11.782
 BASOPT|        5     |       2     | 0.98133662E-03 | 0.73608202E+03 |    6.428
 BASOPT|        5     |       3     | 0.17315648E-02 | 0.25642166E+03 |    5.460
 BASOPT|        6     |       1     | 0.58789924E-03 | 0.72239939E+04 |   35.594
 BASOPT|        6     |       2     | 0.91278852E-03 | 0.28499069E+04 |   19.715
 BASOPT|        6     |       3     | 0.17530036E-02 | 0.48225018E+03 |   16.344
 BASOPT|        7     |       1     | 0.59599070E-03 | 0.11249270E+05 |   58.163
 BASOPT|        7     |       2     | 0.10436030E-02 | 0.31493808E+04 |   35.985
 BASOPT|        7     |       3     | 0.19829262E-02 | 0.36051891E+03 |   27.175
 BASOPT|        8     |       1     | 0.13969993E-03 | 0.14476174E+04 |    9.262
 BASOPT|        8     |       2     | 0.29665029E-03 | 0.43451711E+03 |    5.799
 BASOPT|        8     |       3     | 0.37645990E-03 | 0.67322957E+02 |    4.865
 BASOPT|        9     |       1     | 0.36091555E-03 | 0.23905610E+05 |   19.118
 BASOPT|        9     |       2     | 0.53487517E-03 | 0.88047849E+04 |   11.085
 BASOPT|        9     |       3     | 0.86164811E-03 | 0.50377165E+03 |    9.712
 BASOPT|       10     |       1     | 0.38781918E-03 | 0.22205510E+05 |   34.305
 BASOPT|       10     |       2     | 0.72641141E-03 | 0.40748370E+04 |   19.415
 BASOPT|       10     |       3     | 0.88779578E-03 | 0.43712374E+03 |   16.696
 BASOPT|       11     |       1     | 0.45078946E-03 | 0.12486287E+05 |   77.898
 BASOPT|       11     |       2     | 0.77259209E-03 | 0.63961109E+04 |   46.832
 BASOPT|       11     |       3     | 0.11924818E-02 | 0.38119274E+03 |   34.653
 BASOPT|       12     |       1     | 0.99289661E-03 | 0.88723499E+05 |  158.420
 BASOPT|       12     |       2     | 0.18637258E-02 | 0.15970214E+05 |   92.103
 BASOPT|       12     |       3     | 0.30559782E-02 | 0.35235225E+04 |   76.355
 BASOPT|       13     |       1     | 0.87508136E-03 | 0.32405299E+05 |  119.563
 BASOPT|       13     |       2     | 0.14488047E-02 | 0.90190325E+04 |   64.195
 BASOPT|       13     |       3     | 0.21387351E-02 | 0.49386610E+03 |   53.239
 BASOPT|       14     |       1     | 0.90869914E-03 | 0.97012546E+05 |  213.942
 BASOPT|       14     |       2     | 0.16845639E-02 | 0.29101471E+05 |  125.163
 BASOPT|       14     |       3     | 0.27947526E-02 | 0.44452117E+04 |  101.476
 BASOPT|       15     |       1     | 0.99895729E-03 | 0.23201395E+04 |   27.951
 BASOPT|       15     |       2     | 0.21724076E-02 | 0.92759198E+03 |   15.599
 BASOPT|       15     |       3     | 0.27977832E-02 | 0.47068697E+03 |   12.302
 BASOPT|       16     |       1     | 0.61638225E-03 | 0.49031245E+04 |   24.547
 BASOPT|       16     |       2     | 0.11928135E-02 | 0.10780372E+04 |   13.213
 BASOPT|       16     |       3     | 0.16718704E-02 | 0.31008105E+03 |   11.046
 BASOPT|       17     |       1     | 0.76451296E-03 | 0.48826011E+04 |   24.812
 BASOPT|       17     |       2     | 0.13635772E-02 | 0.11557982E+04 |   13.292
 BASOPT|       17     |       3     | 0.19784205E-02 | 0.34626347E+03 |   11.567
 BASOPT|       18     |       1     | 0.97793252E-03 | 0.24165800E+05 |   45.203
 BASOPT|       18     |       2     | 0.14898897E-02 | 0.93857262E+04 |   24.667
 BASOPT|       18     |       3     | 0.23610714E-02 | 0.54853663E+03 |   20.387
 BASOPT|       19     |       1     | 0.55019333E-03 | 0.54498402E+04 |   19.696
 BASOPT|       19     |       2     | 0.87909793E-03 | 0.15991800E+04 |   10.948
 BASOPT|       19     |       3     | 0.13174635E-02 | 0.58170452E+03 |    9.832
 BASOPT|       20     |       1     | 0.61901133E-03 | 0.55574067E+04 |   33.780
 BASOPT|       20     |       2     | 0.10325839E-02 | 0.13319184E+04 |   18.020
 BASOPT|       20     |       3     | 0.15299667E-02 | 0.40530027E+03 |   15.638
 BASOPT|       21     |       1     | 0.24913575E-03 | 0.44090506E+04 |   19.809
 BASOPT|       21     |       2     | 0.43587725E-03 | 0.92210606E+03 |   10.940
 BASOPT|       21     |       3     | 0.59801974E-03 | 0.80043175E+02 |    9.802
 BASOPT|       22     |       1     | 0.58236885E-03 | 0.13448808E+04 |    4.049
 BASOPT|       22     |       2     | 0.94484342E-03 | 0.57501933E+03 |    2.976
 BASOPT|       22     |       3     | 0.17179208E-02 | 0.27315901E+03 |    2.347
 BASOPT|       23     |       1     | 0.27087374E-03 | 0.56307290E+03 |    2.713
 BASOPT|       23     |       2     | 0.33825048E-03 | 0.20129657E+03 |    1.755
 BASOPT|       23     |       3     | 0.38570187E-03 | 0.18788984E+03 |    1.685
 BASOPT|       24     |       1     | 0.93965480E-03 | 0.65909423E+04 |   37.761
 BASOPT|       24     |       2     | 0.16118181E-02 | 0.18747883E+04 |   20.923
 BASOPT|       24     |       3     | 0.24155775E-02 | 0.97625979E+03 |   16.478
 BASOPT|       25     |       1     | 0.60781129E-03 | 0.33886170E+04 |   12.263
 BASOPT|       25     |       2     | 0.96183137E-03 | 0.95250236E+03 |    7.160
 BASOPT|       25     |       3     | 0.14940299E-02 | 0.33595008E+03 |    6.518
 BASOPT|       26     |       1     | 0.56132741E-03 | 0.35635681E+04 |   10.425
 BASOPT|       26     |       2     | 0.89570258E-03 | 0.94634338E+03 |    5.954
 BASOPT|       26     |       3     | 0.13726882E-02 | 0.29320179E+03 |    4.991
 BASOPT|       27     |       1     | 0.52826049E-03 | 0.25449228E+04 |    5.219
 BASOPT|       27     |       2     | 0.76512914E-03 | 0.86658793E+03 |    3.033
 BASOPT|       27     |       3     | 0.94725090E-03 | 0.86194280E+02 |    2.977
 BASOPT|       28     |       1     | 0.43043935E-03 | 0.20237205E+04 |    2.123
 BASOPT|       28     |       2     | 0.58274318E-03 | 0.62077906E+03 |    1.584
 BASOPT|       28     |       3     | 0.68964417E-03 | 0.65082414E+02 |    1.480
 BASOPT|       29     |       1     | 0.36991601E-03 | 0.48197900E+04 |    8.597
 BASOPT|       29     |       2     | 0.54426633E-03 | 0.17539765E+04 |    5.243
 BASOPT|       29     |       3     | 0.10743737E-02 | 0.50086251E+03 |    4.463
 BASOPT|       30     |       1     | 0.40030841E-03 | 0.13833975E+04 |    2.747
 BASOPT|       30     |       2     | 0.54257435E-03 | 0.63659473E+03 |    1.857
 BASOPT|       30     |       3     | 0.66844162E-03 | 0.67681271E+02 |    1.622
 BASOPT|       31     |       1     | 0.50718446E-03 | 0.37116474E+04 |    8.673
 BASOPT|       31     |       2     | 0.78011808E-03 | 0.11533741E+04 |    5.382
 BASOPT|       31     |       3     | 0.15921943E-02 | 0.64129633E+03 |    4.589
 BASOPT|       32     |       1     | 0.78959541E-03 | 0.62678953E+04 |   11.433
 BASOPT|       32     |       2     | 0.12768669E-02 | 0.20570863E+04 |    6.237
 BASOPT|       32     |       3     | 0.19386673E-02 | 0.92891373E+03 |    5.423
 BASOPT|       33     |       1     | 0.72090400E-03 | 0.13588837E+05 |   19.995
 BASOPT|       33     |       2     | 0.13501630E-02 | 0.46141140E+04 |   10.652
[...]
 BASOPT|       42     |       1     | 0.44661975E-03 | 0.10047879E+04 |  165.115
 BASOPT|       42     |       2     | 0.63253684E-03 | 0.35577155E+03 |   92.461
 BASOPT|       42     |       3     | 0.95255979E-03 | 0.27225328E+03 |   84.402
 BASOPT| -----------------------------------------------------------------------
 BASOPT| Total residuum value: -.10371014E+05


 -------------------------------------------------------------------------------
 -                                                                             -
 -                                DBCSR STATISTICS                             -
 -                                                                             -
 -------------------------------------------------------------------------------
 COUNTER                                    TOTAL       BLAS       SMM       ACC
 flops    52 x    52 x     3                48672       0.0%    100.0%      0.0%
 flops    52 x    68 x     3                63648       0.0%    100.0%      0.0%
 flops    68 x    68 x     1                83232       0.0%    100.0%      0.0%
 flops    52 x    68 x     5               106080       0.0%    100.0%      0.0%
 flops    68 x    52 x     5               106080       0.0%    100.0%      0.0%
 flops    68 x    52 x     3               127296       0.0%    100.0%      0.0%
 flops   116 x    52 x     5               180960       0.0%    100.0%      0.0%
 flops    52 x    52 x     4               194688       0.0%    100.0%      0.0%
 flops    52 x   116 x     6               217152       0.0%    100.0%      0.0%
 flops   116 x    52 x     6               217152       0.0%    100.0%      0.0%
 flops   116 x    52 x     7               253344       0.0%    100.0%      0.0%
 flops    52 x    68 x     4               254592       0.0%    100.0%      0.0%
 flops    68 x    52 x     4               254592       0.0%    100.0%      0.0%
 flops   116 x    52 x     8               289536       0.0%    100.0%      0.0%
 flops   116 x   116 x     4               322944       0.0%    100.0%      0.0%
 flops   116 x    52 x     9               325728       0.0%    100.0%      0.0%
 flops    52 x   116 x     9               325728       0.0%    100.0%      0.0%
 flops    52 x   116 x     5               361920       0.0%    100.0%      0.0%
 flops   116 x    52 x    10               361920       0.0%    100.0%      0.0%
 flops    52 x   116 x    10               361920       0.0%    100.0%      0.0%
 flops   116 x    68 x     4               378624       0.0%    100.0%      0.0%
 flops    68 x   116 x     4               378624       0.0%    100.0%      0.0%
 flops    68 x    52 x    10               424320       0.0%    100.0%      0.0%
 flops    52 x    68 x    10               424320       0.0%    100.0%      0.0%
 flops   116 x    68 x     9               425952       0.0%    100.0%      0.0%
 flops    68 x   116 x     9               425952       0.0%    100.0%      0.0%
 flops   116 x    52 x    12               434304       0.0%    100.0%      0.0%
 flops    52 x    52 x     5               486720       0.0%    100.0%      0.0%
 flops    68 x    68 x     3               499392       0.0%    100.0%      0.0%
 flops   116 x    68 x    12               567936       0.0%    100.0%      0.0%
 flops    68 x   116 x    12               567936       0.0%    100.0%      0.0%
 flops    52 x    68 x     9               572832       0.0%    100.0%      0.0%
 flops    68 x    68 x     5               693600       0.0%    100.0%      0.0%
 flops    68 x   116 x     5               709920       0.0%    100.0%      0.0%
 flops   116 x    68 x     5               709920       0.0%    100.0%      0.0%
 flops   116 x   116 x     9               726624       0.0%    100.0%      0.0%
 flops    68 x    52 x     9               763776       0.0%    100.0%      0.0%
 flops    52 x   116 x    12               868608       0.0%    100.0%      0.0%
 flops    52 x   116 x     8               868608       0.0%    100.0%      0.0%
 flops   116 x   116 x    12               968832       0.0%    100.0%      0.0%
 flops    68 x    68 x     9               998784       0.0%    100.0%      0.0%
 flops    52 x    52 x     6              1070784       0.0%    100.0%      0.0%
 flops   116 x    52 x    16              1158144       0.0%    100.0%      0.0%
 flops    52 x   116 x    16              1158144       0.0%    100.0%      0.0%
 flops    68 x    52 x    12              1272960       0.0%    100.0%      0.0%
 flops    52 x    68 x    12              1272960       0.0%    100.0%      0.0%
 flops   116 x   116 x    16              1291776       0.0%    100.0%      0.0%
 flops    52 x    52 x     9              1314144       0.0%    100.0%      0.0%
 flops    68 x    68 x    12              1331712       0.0%    100.0%      0.0%
 flops    68 x    52 x     6              1400256       0.0%    100.0%      0.0%
 flops    52 x    52 x     7              1476384       0.0%    100.0%      0.0%
 flops    68 x   116 x     8              1514496       0.0%    100.0%      0.0%
 flops    52 x    68 x     6              1527552       0.0%    100.0%      0.0%
 flops   116 x    68 x     6              1703808       0.0%    100.0%      0.0%
 flops   116 x    68 x     8              1893120       0.0%    100.0%      0.0%
 flops    68 x   116 x     6              1987776       0.0%    100.0%      0.0%
 flops    52 x    68 x     7              2079168       0.0%    100.0%      0.0%
 flops    68 x    52 x     7              2079168       0.0%    100.0%      0.0%
 flops    52 x    52 x    13              2109120       0.0%    100.0%      0.0%
 flops    52 x    52 x     8              2206464       0.0%    100.0%      0.0%
 flops    68 x    68 x     4              2219520       0.0%    100.0%      0.0%
 flops   116 x   116 x     7              2260608       0.0%    100.0%      0.0%
 flops   116 x    68 x     7              2319072       0.0%    100.0%      0.0%
 flops   116 x   116 x     5              2422080       0.0%    100.0%      0.0%
 flops   116 x   116 x     6              2422080       0.0%    100.0%      0.0%
 flops    52 x    68 x     8              2545920       0.0%    100.0%      0.0%
 flops   116 x   116 x     8              2583552       0.0%    100.0%      0.0%
 flops    52 x    52 x    16              2595840       0.0%    100.0%      0.0%
 flops    68 x   116 x     7              2981664       0.0%    100.0%      0.0%
 flops    68 x    52 x     8              3055104       0.0%    100.0%      0.0%
 flops    52 x    52 x    10              3082560       0.0%    100.0%      0.0%
 flops    52 x   116 x    15              3257280       0.0%    100.0%      0.0%
 flops    68 x    68 x    10              3606720       0.0%    100.0%      0.0%
 flops   116 x    52 x    15              3800160       0.0%    100.0%      0.0%
 flops   116 x    68 x    10              4259520       0.0%    100.0%      0.0%
 flops    68 x   116 x    10              4259520       0.0%    100.0%      0.0%
 flops    52 x    52 x    15              6084000       0.0%    100.0%      0.0%
 flops    68 x    68 x     8              7102464       0.0%    100.0%      0.0%
 flops    68 x    68 x     6              7324416       0.0%    100.0%      0.0%
 flops    68 x    52 x    15              7637760       0.0%    100.0%      0.0%
 flops    52 x    68 x    15              7956000       0.0%    100.0%      0.0%
 flops    52 x    52 x    12              7982208       0.0%    100.0%      0.0%
 flops   116 x   116 x    10              8880960       0.0%    100.0%      0.0%
 flops    68 x    68 x     7             12623520       0.0%    100.0%      0.0%
 flops   116 x    68 x    15             14198400       0.0%    100.0%      0.0%
 flops    68 x   116 x    15             14908320       0.0%    100.0%      0.0%
 flops    68 x    68 x    15             19143360       0.0%    100.0%      0.0%
 flops   116 x   116 x    15             30276000       0.0%    100.0%      0.0%
 flops inhomo. stacks                           0       0.0%      0.0%      0.0%
 flops total                       238.989312E+06       0.0%    100.0%      0.0%
 flops max/rank                     31.136640E+06       0.0%    100.0%      0.0%
 matmuls inhomo. stacks                         0       0.0%      0.0%      0.0%
 matmuls total                               2328       0.0%    100.0%      0.0%
 number of processed stacks                   576       0.0%    100.0%      0.0%
 average stack size                                     0.0       4.0       0.0
 marketing flops                   417.146688E+06
 -------------------------------------------------------------------------------
 # multiplications                              2
 max memory usage/rank               3.888779E+09
 # max total images/rank                        1
 # max 3D layers                                1
 # MPI messages exchanged                       0
 -------------------------------------------------------------------------------
 -                                                                             -
 -                      DBCSR MESSAGE PASSING PERFORMANCE                      -
 -                                                                             -
 -------------------------------------------------------------------------------
 ROUTINE             CALLS      AVE VOLUME [Bytes]
 MP_Bcast               89                     12.
 MP_Allreduce          209                     24.
 MP_Alltoall       1753362                 424498.
 MP_ISend                8                    160.
 MP_IRecv                8                    160.
 -------------------------------------------------------------------------------

 -------------------------------------------------------------------------------
 -                                                                             -
 -                                GRID STATISTICS                              -
 -                                                                             -
 -------------------------------------------------------------------------------
 LP    KERNEL    OPERATION                                     COUNT     PERCENT
 0     general   collocate                                       645       0.10%
 0     ortho     integrate                                     41826       6.53%
 0     ortho     collocate                                     41826       6.53%
 1     ortho     integrate                                     47505       7.41%
 1     ortho     collocate                                     47505       7.41%
 2     ortho     integrate                                     62433       9.74%
 2     ortho     collocate                                     62433       9.74%
 3     ortho     integrate                                     79893      12.47%
 3     ortho     collocate                                     79893      12.47%
 4     ortho     integrate                                     44502       6.95%
 4     ortho     collocate                                     44502       6.95%
 5     ortho     integrate                                     22503       3.51%
 5     ortho     collocate                                     22503       3.51%
 6     ortho     integrate                                     13218       2.06%
 6     ortho     collocate                                     13218       2.06%
 7     ortho     integrate                                      5328       0.83%
 7     ortho     collocate                                      5328       0.83%
 8     ortho     integrate                                      2832       0.44%
 8     ortho     collocate                                      2832       0.44%
 -------------------------------------------------------------------------------

 MEMORY| Estimated peak process memory [MiB]                                4781

 -------------------------------------------------------------------------------
 -                                                                             -
 -                         MESSAGE PASSING PERFORMANCE                         -
 -                                                                             -
 -------------------------------------------------------------------------------

 ROUTINE             CALLS      AVE VOLUME [Bytes]
 MP_Bcast            14653                   2010.
 MP_Allreduce       131636                    678.
 MP_Sync             14611
 MP_comm_split           1
 -------------------------------------------------------------------------------


 -------------------------------------------------------------------------------
 -                                                                             -
 -                           R E F E R E N C E S                               -
 -                                                                             -
 -------------------------------------------------------------------------------
 
 CP2K version 8.0 (Development Version), the CP2K developers group (2020).
 CP2K is freely available from https://www.cp2k.org/ .

 Kuehne,Thomas D.; Iannuzzi,Marcella; Del Ben,Mauro;
 Rybkin,Vladimir V.; Seewald,Patrick; Stein,Frederick; Laino,Teodoro;
 Khaliullin,Rustam Z.; Schuett,Ole; Schiffmann,Florian; Golze,Dorothea;
 Wilhelm,Jan; Chulkov,Sergey; Bani-Hashemian,Mohammad Hossein;
 Weber,Valery; Borstnik,Urban; Taillefumier,Mathieu;
 Jakobovits,Alice Shoshana; Lazzaro,Alfio; Pabst,Hans; Mueller,Tiziano;
 Schade,Robert; Guidon,Manuel; Andermatt,Samuel; Holmberg,Nico;
 Schenter,Gregory K.; Hehn,Anna; Bussy,Augustin; Belleflamme,Fabian;
 Tabacchi,Gloria; Gloess,Andreas; Lass,Michael; Bethune,Iain;
 Mundy,Christopher J.; Plessl,Christian; Watkins,Matt;
 VandeVondele,Joost; Krack,Matthias; Hutter,Juerg. 
 The Journal of Chemical Physics, 152 (19), (2020). 
 CP2K: An electronic structure and molecular dynamics software package -
 Quickstep: Efficient and accurate electronic structure calculations.
 https://doi.org/10.1063/5.0007045

 Schuett, Ole; Messmer, Peter; Hutter, Juerg; VandeVondele, Joost. 
 Electronic Structure Calculations on Graphics Processing Units, John
 Wiley & Sons, Ltd, 173-190 (2016). 
 GPU-Accelerated Sparse Matrix-Matrix Multiplication for
 Linear Scaling Density Functional Theory.
 https://doi.org/10.1002/9781118670712.ch8

 Borstnik, U; VandeVondele, J; Weber, V; Hutter, J. 
 PARALLEL COMPUTING, 40 (5-6), 47-58 (2014). 
 Sparse matrix multiplication: The distributed block-compressed sparse
 row library.
 https://doi.org/10.1016/j.parco.2014.03.012

 Hutter, J; Iannuzzi, M; Schiffmann, F; VandeVondele, J. 
 WIREs Comput Mol Sci., 4 (1), 15-25 (2014). 
 CP2K: atomistic simulations of condensed matter systems.
 https://doi.org/10.1002/wcms.1159

 Marek, A; Blum, V; Johanni, R; Havu, V; Lang, B; Auckenthaler, T;
 Heinecke, A; Bungartz, H; Lederer, H. 
 Journal of Physics: Condensed Matter, 26 (21), (2014). 
 The ELPA library: scalable parallel eigenvalue solutions for
 electronic structure
 theory and computational science.
 https://doi.org/10.1088/0953-8984/26/21/213201

 Guidon, M; Hutter, J; VandeVondele, J. 
 JOURNAL OF CHEMICAL THEORY AND COMPUTATION, 6 (8), 2348-2364 (2010). 
 Auxiliary Density Matrix Methods for Hartree-Fock Exchange Calculations.
 https://doi.org/10.1021/ct1002225

 VandeVondele, J; Hutter, J. 
 JOURNAL OF CHEMICAL PHYSICS, 127 (11), 114105 (2007). 
 Gaussian basis sets for accurate calculations on molecular systems in
 gas and condensed phases.
 https://doi.org/10.1063/1.2770708

 Krack, M. 
 THEORETICAL CHEMISTRY ACCOUNTS, 114 (1-3), 145-152 (2005). 
 Pseudopotentials for H to Kr optimized for gradient-corrected
 exchange-correlation functionals.
 https://doi.org/10.1007/s00214-005-0655-y

 VandeVondele, J; Krack, M; Mohamed, F; Parrinello, M; Chassaing, T;
 Hutter, J. COMPUTER PHYSICS COMMUNICATIONS, 167 (2), 103-128 (2005). 
 QUICKSTEP: Fast and accurate density functional calculations using a
 mixed Gaussian and plane waves approach.
 https://doi.org/10.1016/j.cpc.2004.12.014

 Frigo, M; Johnson, SG. 
 PROCEEDINGS OF THE IEEE, 93 (2), 216-231 (2005). 
 The design and implementation of FFTW3.
 https://doi.org/10.1109/JPROC.2004.840301

 Martyna, GJ; Tuckerman, ME. 
 JOURNAL OF CHEMICAL PHYSICS, 110 (6), 2810-2821 (1999). 
 A reciprocal space based method for treating long range interactions in
 ab initio and force-field-based calculations in clusters.
 https://doi.org/10.1063/1.477923

 Hartwigsen, C; Goedecker, S; Hutter, J. 
 PHYSICAL REVIEW B, 58 (7), 3641-3662 (1998). 
 Relativistic separable dual-space Gaussian pseudopotentials from H to Rn.
 https://doi.org/10.1103/PhysRevB.58.3641

 Lippert, G; Hutter, J; Parrinello, M. 
 MOLECULAR PHYSICS, 92 (3), 477-487 (1997). 
 A hybrid Gaussian and plane wave density functional scheme.
 https://doi.org/10.1080/002689797170220

 Perdew, JP; Burke, K; Ernzerhof, M. 
 PHYSICAL REVIEW LETTERS, 77 (18), 3865-3868 (1996). 
 Generalized gradient approximation made simple.
 https://doi.org/10.1103/PhysRevLett.77.3865

 Goedecker, S; Teter, M; Hutter, J. 
 PHYSICAL REVIEW B, 54 (3), 1703-1710 (1996). 
 Separable dual-space Gaussian pseudopotentials.
 https://doi.org/10.1103/PhysRevB.54.1703


 -------------------------------------------------------------------------------
 -                                                                             -
 -                                T I M I N G                                  -
 -                                                                             -
 -------------------------------------------------------------------------------
 SUBROUTINE                       CALLS  ASD         SELF TIME        TOTAL TIME
                                MAXIMUM       AVERAGE  MAXIMUM  AVERAGE  MAXIMUM
 CP2K                                 1  1.0    0.002    0.005 7166.309 7166.621
 run_optimize_basis                   1  2.0    0.002    0.004 7166.057 7166.364
 driver_para_opt_basis                1  3.0    0.000    0.000 7166.048 7166.356
 driver_optimization_para_low         1  4.0    0.367    0.586 7166.047 7166.354
 compute_residuum_vectors         14611  5.0    1.740    2.698 7042.590 7061.627
 mp_sum_dv                        73056  5.8 5823.058 6976.767 5823.058 6976.767
 cp_gemm                         350664  7.2    0.393    0.674  876.118 5758.048
 cp_gemm_fm_gemm                 350664  8.2    0.232    0.390  875.725 5757.534
 cp_fm_gemm                      350664  9.2  875.493 5757.235  875.493 5757.235
 admm_fit_mo_coeffs               29222  6.0    0.061    0.128  348.228 2302.317
 fit_mo_coeffs                    29222  7.0    0.219    0.321  300.564 2113.571
 build_overlap_matrix_low         58452  6.0  103.814  502.459  105.491  506.787
 copy_dbcsr_to_fm                146112  6.8    1.289    2.617   92.233  422.975
 cp_fm_upper_to_full              87670  7.3   78.283  352.861   78.283  352.861
 purify_mo_diag                   29222  7.0    0.258    0.469   47.603  322.867
 dbcsr_complete_redistribute     146114  7.8   33.420  159.072   55.603  262.739
 cp_fm_syevd                      58444  7.0    0.143    0.233   33.958  173.645
 cp_fm_syevd_base                 58444  8.0   33.753  173.317   33.753  173.317
 -------------------------------------------------------------------------------

 The number of warnings for this run is : 0
 
 -------------------------------------------------------------------------------
  **** **** ******  **  PROGRAM ENDED AT                 2020-12-01 20:20:32.672
 ***** ** ***  *** **   PROGRAM RAN ON                                   tcopt13
 **    ****   ******    PROGRAM RAN BY                                    hutter
 ***** **    ** ** **   PROGRAM PROCESS ID                                111785
  **** **  *******  **  PROGRAM STOPPED IN /data/hutter/GITHUB/BASIS/MOLOPT/PBE0
                                           /hbcnof
