SIRIUS 7.0.0, git hash: https://api.github.com/repos/electronic-structure/SIRIUS/git/ref/tags/v7.0.0

  **** **** ******  **  PROGRAM STARTED AT               2020-12-01 16:52:45.111
 ***** ** ***  *** **   PROGRAM STARTED ON                               tcopt10
 **    ****   ******    PROGRAM STARTED BY                                hutter
 ***** **    ** ** **   PROGRAM PROCESS ID                                 14906
  **** **  *******  **  PROGRAM STARTED IN /data/hutter/GITHUB/BASIS/MOLOPT/PBE0
                                           /hbcnof

 CP2K| version string:                    CP2K version 8.0 (Development Version)
 CP2K| source code revision number:                                  git:afc71fa
 CP2K| cp2kflags: omp libint fftw3 libxc elpa parallel mpi3 scalapack xsmm spgli
 CP2K|            b sirius
 CP2K| is freely available from                            https://www.cp2k.org/
 CP2K| Program compiled at                          Tue Nov 17 10:27:14 CET 2020
 CP2K| Program compiled on                                               tcopt10
 CP2K| Program compiled for                                                local
 CP2K| Data directory path                 /data/hutter/GITHUB/CURRENT/cp2k/data
 CP2K| Input file name                                              opt-dzvp.inp

 GLOBAL| Method name                                              OPTIMIZE_BASIS
 GLOBAL| Project name                                                     molopt
 GLOBAL| Preferred FFT library                                             FFTW3
 GLOBAL| Preferred diagonalization lib.                                     ELPA
 GLOBAL| Run type                                                   ENERGY_FORCE
 GLOBAL| All-to-all communication in single precision                          F
 GLOBAL| FFTs using library dependent lengths                                  F
 GLOBAL| Global print level                                               MEDIUM
 GLOBAL| MPI I/O enabled                                                       T
 GLOBAL| Total number of message passing processes                            24
 GLOBAL| Number of threads for this process                                    1
 GLOBAL| This output is from process                                           0
 GLOBAL| CPU model name                          AMD EPYC 7401 24-Core Processor
 GLOBAL| CPUID                                                              1002

 MEMORY| system memory details [Kb]
 MEMORY|                        rank 0           min           max       average
 MEMORY| MemTotal            263987256     263987256     263987256     263987256
 MEMORY| MemFree             257730368     257730368     257730368     257730368
 MEMORY| Buffers                    40            40            40            40
 MEMORY| Cached                3209716       3209716       3209716       3209716
 MEMORY| Slab                   784236        784236        784236        784236
 MEMORY| SReclaimable           286436        286436        286436        286436
 MEMORY| MemLikelyFree       261226560     261226560     261226560     261226560


 *** Fundamental physical constants (SI units) ***

 *** Literature: B. J. Mohr and B. N. Taylor,
 ***             CODATA recommended values of the fundamental physical
 ***             constants: 2006, Web Version 5.1
 ***             http://physics.nist.gov/constants

 Speed of light in vacuum [m/s]                             2.99792458000000E+08
 Magnetic constant or permeability of vacuum [N/A**2]       1.25663706143592E-06
 Electric constant or permittivity of vacuum [F/m]          8.85418781762039E-12
 Planck constant (h) [J*s]                                  6.62606896000000E-34
 Planck constant (h-bar) [J*s]                              1.05457162825177E-34
 Elementary charge [C]                                      1.60217648700000E-19
 Electron mass [kg]                                         9.10938215000000E-31
 Electron g factor [ ]                                     -2.00231930436220E+00
 Proton mass [kg]                                           1.67262163700000E-27
 Fine-structure constant                                    7.29735253760000E-03
 Rydberg constant [1/m]                                     1.09737315685270E+07
 Avogadro constant [1/mol]                                  6.02214179000000E+23
 Boltzmann constant [J/K]                                   1.38065040000000E-23
 Atomic mass unit [kg]                                      1.66053878200000E-27
 Bohr radius [m]                                            5.29177208590000E-11

 *** Conversion factors ***

 [u] -> [a.u.]                                              1.82288848426455E+03
 [Angstrom] -> [Bohr] = [a.u.]                              1.88972613288564E+00
 [a.u.] = [Bohr] -> [Angstrom]                              5.29177208590000E-01
 [a.u.] -> [s]                                              2.41888432650478E-17
 [a.u.] -> [fs]                                             2.41888432650478E-02
 [a.u.] -> [J]                                              4.35974393937059E-18
 [a.u.] -> [N]                                              8.23872205491840E-08
 [a.u.] -> [K]                                              3.15774647902944E+05
 [a.u.] -> [kJ/mol]                                         2.62549961709828E+03
 [a.u.] -> [kcal/mol]                                       6.27509468713739E+02
 [a.u.] -> [Pa]                                             2.94210107994716E+13
 [a.u.] -> [bar]                                            2.94210107994716E+08
 [a.u.] -> [atm]                                            2.90362800883016E+08
 [a.u.] -> [eV]                                             2.72113838565563E+01
 [a.u.] -> [Hz]                                             6.57968392072181E+15
 [a.u.] -> [1/cm] (wave numbers)                            2.19474631370540E+05
 [a.u./Bohr**2] -> [1/cm]                                   5.14048714338585E+03
 
 DBCSR| CPU Multiplication driver                                           XSMM
 DBCSR| Multrec recursion limit                                              512
 DBCSR| Multiplication stack size                                           1000
 DBCSR| Maximum elements for images                                    UNLIMITED
 DBCSR| Multiplicative factor virtual images                                   1
 DBCSR| Use multiplication densification                                       T
 DBCSR| Multiplication size stacks                                             3
 DBCSR| Use memory pool for CPU allocation                                     F
 DBCSR| Number of 3D layers                                               SINGLE
 DBCSR| Use MPI memory allocation                                              F
 DBCSR| Use RMA algorithm                                                      F
 DBCSR| Use Communication thread                                               T
 DBCSR| Communication thread load                                             87
 DBCSR| Split modifier for TAS multiplication algorithm                  1.0E+00

 BASOPT| Total number of calculations     42

 BASOPT| Content of basis combination      1
 BASOPT|     Element:    H    Basis set:    DZVP-MOLOPT-PBE0-GTH-Q1
 BASOPT|     Element:    B    Basis set:    DZVP-MOLOPT-PBE0-GTH-Q3
 BASOPT|     Element:    C    Basis set:    DZVP-MOLOPT-PBE0-GTH-Q4
 BASOPT|     Element:    N    Basis set:    DZVP-MOLOPT-PBE0-GTH-Q5
 BASOPT|     Element:    O    Basis set:    DZVP-MOLOPT-PBE0-GTH-Q6
 BASOPT|     Element:    F    Basis set:    DZVP-MOLOPT-PBE0-GTH-Q7

 BASOPT| Information at iteration number:       0
 BASOPT| Training set | Combination | Rho difference | Condition num. | Time
 BASOPT| -----------------------------------------------------------------------
 BASOPT|        1     |       1     | 0.10657186E-02 | 0.36726705E+03 |    0.064
 BASOPT|        2     |       1     | 0.26544386E-02 | 0.56874324E+03 |    0.020
 BASOPT|        3     |       1     | 0.27115517E-02 | 0.12217211E+04 |    0.190
 BASOPT|        4     |       1     | 0.28879384E-02 | 0.42605997E+03 |    0.062
 BASOPT|        5     |       1     | 0.23078303E-02 | 0.25012944E+03 |    0.015
 BASOPT|        6     |       1     | 0.20156900E-02 | 0.66750416E+03 |    0.041
 BASOPT|        7     |       1     | 0.22458550E-02 | 0.42778895E+03 |    0.063
 BASOPT|        8     |       1     | 0.55398712E-03 | 0.86046650E+02 |    0.011
 BASOPT|        9     |       1     | 0.11055773E-02 | 0.94928981E+03 |    0.024
 BASOPT|       10     |       1     | 0.10769921E-02 | 0.75771321E+03 |    0.042
 BASOPT|       11     |       1     | 0.13429823E-02 | 0.62305488E+03 |    0.092
 BASOPT|       12     |       1     | 0.33690134E-02 | 0.33395399E+04 |    0.191
 BASOPT|       13     |       1     | 0.25330118E-02 | 0.76024909E+03 |    0.143
 BASOPT|       14     |       1     | 0.31394549E-02 | 0.44194232E+04 |    0.254
 BASOPT|       15     |       1     | 0.35308195E-02 | 0.42830201E+03 |    0.033
 BASOPT|       16     |       1     | 0.20014371E-02 | 0.36615567E+03 |    0.029
 BASOPT|       17     |       1     | 0.21566520E-02 | 0.49140415E+03 |    0.030
 BASOPT|       18     |       1     | 0.26174233E-02 | 0.92360196E+03 |    0.052
 BASOPT|       19     |       1     | 0.15365454E-02 | 0.82313005E+03 |    0.025
 BASOPT|       20     |       1     | 0.16596446E-02 | 0.56241441E+03 |    0.039
 BASOPT|       21     |       1     | 0.66942827E-03 | 0.10456094E+03 |    0.027
 BASOPT|       22     |       1     | 0.17212205E-02 | 0.32232477E+03 |    0.006
 BASOPT|       23     |       1     | 0.62672756E-03 | 0.17943732E+03 |    0.005
 BASOPT|       24     |       1     | 0.28351083E-02 | 0.11254464E+04 |    0.043
 BASOPT|       25     |       1     | 0.16425451E-02 | 0.46270543E+03 |    0.017
 BASOPT|       26     |       1     | 0.15809513E-02 | 0.38793443E+03 |    0.012
 BASOPT|       27     |       1     | 0.11003859E-02 | 0.12937119E+03 |    0.007
 BASOPT|       28     |       1     | 0.72006081E-03 | 0.97735203E+02 |    0.003
 BASOPT|       29     |       1     | 0.13411892E-02 | 0.66133195E+03 |    0.012
 BASOPT|       30     |       1     | 0.92353887E-03 | 0.10905203E+03 |    0.004
 BASOPT|       31     |       1     | 0.17153423E-02 | 0.87573354E+03 |    0.012
 BASOPT|       32     |       1     | 0.21439490E-02 | 0.13123770E+04 |    0.013
 BASOPT|       33     |       1     | 0.25411816E-02 | 0.19089210E+04 |    0.026
 BASOPT|       34     |       1     | 0.18459912E-02 | 0.75018365E+03 |    0.008
 BASOPT|       35     |       1     | 0.18639045E-02 | 0.12566212E+04 |    0.012
 BASOPT|       36     |       1     | 0.22269325E-02 | 0.11299053E+04 |    0.030
 BASOPT|       37     |       1     | 0.17580510E-02 | 0.10882693E+04 |    0.004
 BASOPT|       38     |       1     | 0.22723285E-02 | 0.10273339E+04 |    0.014
 BASOPT|       39     |       1     | 0.19074825E-02 | 0.11272232E+04 |    0.015
 BASOPT|       40     |       1     | 0.13565906E-02 | 0.15232390E+03 |    0.014
 BASOPT|       41     |       1     | 0.21005198E-02 | 0.26299942E+03 |    0.033
 BASOPT|       42     |       1     | 0.12147013E-02 | 0.32181608E+03 |    0.009
 BASOPT| -----------------------------------------------------------------------
 BASOPT| Total residuum value: -.34553999E+04

 BASOPT| Information at iteration number:     100
 BASOPT| Training set | Combination | Rho difference | Condition num. | Time
 BASOPT| -----------------------------------------------------------------------
 BASOPT|        1     |       1     | 0.10657186E-02 | 0.36726705E+03 |    6.297
 BASOPT|        2     |       1     | 0.26544386E-02 | 0.56874324E+03 |    1.967
 BASOPT|        3     |       1     | 0.86014540E-02 | 0.11037621E+04 |   18.762
 BASOPT|        4     |       1     | 0.28879384E-02 | 0.42605997E+03 |    6.279
 BASOPT|        5     |       1     | 0.23078303E-02 | 0.25012944E+03 |    1.418
 BASOPT|        6     |       1     | 0.20156900E-02 | 0.66750416E+03 |    4.188
 BASOPT|        7     |       1     | 0.41828053E-02 | 0.42043998E+03 |    6.337
 BASOPT|        8     |       1     | 0.55398712E-03 | 0.86046650E+02 |    1.095
 BASOPT|        9     |       1     | 0.11055773E-02 | 0.94928981E+03 |    2.274
 BASOPT|       10     |       1     | 0.10769921E-02 | 0.75771321E+03 |    4.190
 BASOPT|       11     |       1     | 0.13429823E-02 | 0.62305488E+03 |    8.754
 BASOPT|       12     |       1     | 0.87784292E-02 | 0.31927293E+04 |   18.660
 BASOPT|       13     |       1     | 0.25330118E-02 | 0.76024909E+03 |   13.752
 BASOPT|       14     |       1     | 0.57625879E-02 | 0.43891149E+04 |   25.260
 BASOPT|       15     |       1     | 0.35308195E-02 | 0.42830201E+03 |    3.181
 BASOPT|       16     |       1     | 0.20014371E-02 | 0.36615567E+03 |    2.944
 BASOPT|       17     |       1     | 0.21566520E-02 | 0.49140415E+03 |    2.943
 BASOPT|       18     |       1     | 0.52448532E-02 | 0.91198834E+03 |    5.235
 BASOPT|       19     |       1     | 0.41986117E-02 | 0.76438290E+03 |    2.414
 BASOPT|       20     |       1     | 0.16596446E-02 | 0.56241441E+03 |    3.959
 BASOPT|       21     |       1     | 0.66942827E-03 | 0.10456094E+03 |    2.546
 BASOPT|       22     |       1     | 0.17212205E-02 | 0.32232477E+03 |    0.581
 BASOPT|       23     |       1     | 0.62672756E-03 | 0.17943732E+03 |    0.387
 BASOPT|       24     |       1     | 0.28351083E-02 | 0.11254464E+04 |    4.442
 BASOPT|       25     |       1     | 0.16425451E-02 | 0.46270543E+03 |    1.567
 BASOPT|       26     |       1     | 0.15809513E-02 | 0.38793443E+03 |    1.216
 BASOPT|       27     |       1     | 0.11003859E-02 | 0.12937119E+03 |    0.646
 BASOPT|       28     |       1     | 0.72006081E-03 | 0.97735203E+02 |    0.339
 BASOPT|       29     |       1     | 0.44521055E-02 | 0.61473854E+03 |    1.164
 BASOPT|       30     |       1     | 0.92353887E-03 | 0.10905203E+03 |    0.415
 BASOPT|       31     |       1     | 0.41692643E-02 | 0.78006808E+03 |    1.115
 BASOPT|       32     |       1     | 0.39615462E-02 | 0.12545843E+04 |    1.350
 BASOPT|       33     |       1     | 0.42382288E-02 | 0.18517778E+04 |    2.292
 BASOPT|       34     |       1     | 0.49046921E-02 | 0.66392412E+03 |    0.756
 BASOPT|       35     |       1     | 0.83353214E-02 | 0.10628585E+04 |    1.138
 BASOPT|       36     |       1     | 0.72076455E-02 | 0.10058586E+04 |    3.120
 BASOPT|       37     |       1     | 0.99292474E-02 | 0.89439211E+03 |    0.358
 BASOPT|       38     |       1     | 0.16983955E-01 | 0.84642796E+03 |    1.336
 BASOPT|       39     |       1     | 0.43904139E-02 | 0.10865460E+04 |    1.426
 BASOPT|       40     |       1     | 0.34383240E-02 | 0.14394425E+03 |    1.254
 BASOPT|       41     |       1     | 0.45913207E-02 | 0.26069956E+03 |    3.077
 BASOPT|       42     |       1     | 0.12147013E-02 | 0.32181608E+03 |    0.818
 BASOPT| -----------------------------------------------------------------------
 BASOPT| Total residuum value: -.34490326E+04

 BASOPT| Information at iteration number:     200
 BASOPT| Training set | Combination | Rho difference | Condition num. | Time
 BASOPT| -----------------------------------------------------------------------
 BASOPT|        1     |       1     | 0.97928815E-03 | 0.10317334E+04 |   12.530
 BASOPT|        2     |       1     | 0.26158841E-02 | 0.21430330E+04 |    3.915
 BASOPT|        3     |       1     | 0.26810350E-02 | 0.23931685E+04 |   37.338
 BASOPT|        4     |       1     | 0.26918468E-02 | 0.14595244E+04 |   12.505
 BASOPT|        5     |       1     | 0.21821378E-02 | 0.23472747E+03 |    2.821
 BASOPT|        6     |       1     | 0.19630559E-02 | 0.67001470E+03 |    8.338
 BASOPT|        7     |       1     | 0.21088653E-02 | 0.48308345E+03 |   12.613
 BASOPT|        8     |       1     | 0.52097088E-03 | 0.84720401E+02 |    2.181
 BASOPT|        9     |       1     | 0.11055773E-02 | 0.94928981E+03 |    4.524
 BASOPT|       10     |       1     | 0.10769921E-02 | 0.75771321E+03 |    8.337
 BASOPT|       11     |       1     | 0.13429823E-02 | 0.62305488E+03 |   17.418
 BASOPT|       12     |       1     | 0.33690134E-02 | 0.33395399E+04 |   37.140
 BASOPT|       13     |       1     | 0.25330118E-02 | 0.76024909E+03 |   27.358
 BASOPT|       14     |       1     | 0.31394549E-02 | 0.44194232E+04 |   50.274
 BASOPT|       15     |       1     | 0.35308195E-02 | 0.42830201E+03 |    6.333
 BASOPT|       16     |       1     | 0.20014371E-02 | 0.36615567E+03 |    5.860
 BASOPT|       17     |       1     | 0.21566520E-02 | 0.49140415E+03 |    5.860
 BASOPT|       18     |       1     | 0.26174233E-02 | 0.92360196E+03 |   10.422
 BASOPT|       19     |       1     | 0.15365454E-02 | 0.82313005E+03 |    4.804
 BASOPT|       20     |       1     | 0.16596446E-02 | 0.56241441E+03 |    7.878
 BASOPT|       21     |       1     | 0.66942827E-03 | 0.10456094E+03 |    5.066
 BASOPT|       22     |       1     | 0.17212205E-02 | 0.32232477E+03 |    1.157
 BASOPT|       23     |       1     | 0.62672756E-03 | 0.17943732E+03 |    0.769
 BASOPT|       24     |       1     | 0.28351083E-02 | 0.11254464E+04 |    8.844
 BASOPT|       25     |       1     | 0.16425451E-02 | 0.46270543E+03 |    3.117
 BASOPT|       26     |       1     | 0.15809513E-02 | 0.38793443E+03 |    2.420
 BASOPT|       27     |       1     | 0.11003859E-02 | 0.12937119E+03 |    1.283
 BASOPT|       28     |       1     | 0.72006081E-03 | 0.97735203E+02 |    0.674
 BASOPT|       29     |       1     | 0.13411892E-02 | 0.66133195E+03 |    2.311
 BASOPT|       30     |       1     | 0.92353887E-03 | 0.10905203E+03 |    0.825
 BASOPT|       31     |       1     | 0.17153423E-02 | 0.87573354E+03 |    2.214
 BASOPT|       32     |       1     | 0.21439490E-02 | 0.13123770E+04 |    2.686
 BASOPT|       33     |       1     | 0.25411816E-02 | 0.19089210E+04 |    4.560
 BASOPT|       34     |       1     | 0.18459912E-02 | 0.75018365E+03 |    1.504
 BASOPT|       35     |       1     | 0.18639045E-02 | 0.12566212E+04 |    2.264
 BASOPT|       36     |       1     | 0.22269325E-02 | 0.11299053E+04 |    6.212
 BASOPT|       37     |       1     | 0.17580510E-02 | 0.10882693E+04 |    0.713
 BASOPT|       38     |       1     | 0.22723285E-02 | 0.10273339E+04 |    2.653
 BASOPT|       39     |       1     | 0.19074825E-02 | 0.11272232E+04 |    2.836
 BASOPT|       40     |       1     | 0.13565906E-02 | 0.15232390E+03 |    2.491
 BASOPT|       41     |       1     | 0.21005198E-02 | 0.26299942E+03 |    6.119
 BASOPT|       42     |       1     | 0.12147013E-02 | 0.32181608E+03 |    1.624
 BASOPT| -----------------------------------------------------------------------
 BASOPT| Total residuum value: -.34553636E+04

 BASOPT| Information at iteration number:     300
 BASOPT| Training set | Combination | Rho difference | Condition num. | Time
 BASOPT| -----------------------------------------------------------------------
 BASOPT|        1     |       1     | 0.10657186E-02 | 0.36726705E+03 |   18.760
 BASOPT|        2     |       1     | 0.14322620E-01 | 0.64192116E+03 |    5.863
 BASOPT|        3     |       1     | 0.27115517E-02 | 0.12217211E+04 |   55.913
 BASOPT|        4     |       1     | 0.28879384E-02 | 0.42605997E+03 |   18.725
 BASOPT|        5     |       1     | 0.23078303E-02 | 0.25012944E+03 |    4.224
 BASOPT|        6     |       1     | 0.57030651E-02 | 0.64811373E+03 |   12.486
 BASOPT|        7     |       1     | 0.22458550E-02 | 0.42778895E+03 |   18.889
 BASOPT|        8     |       1     | 0.55398712E-03 | 0.86046650E+02 |    3.268
 BASOPT|        9     |       1     | 0.11055773E-02 | 0.94928981E+03 |    6.775
 BASOPT|       10     |       1     | 0.10769921E-02 | 0.75771321E+03 |   12.484
 BASOPT|       11     |       1     | 0.13429823E-02 | 0.62305488E+03 |   26.080
 BASOPT|       12     |       1     | 0.33690134E-02 | 0.33395399E+04 |   55.613
 BASOPT|       13     |       1     | 0.25330118E-02 | 0.76024909E+03 |   40.966
 BASOPT|       14     |       1     | 0.31394549E-02 | 0.44194232E+04 |   75.284
 BASOPT|       15     |       1     | 0.35308195E-02 | 0.42830201E+03 |    9.485
 BASOPT|       16     |       1     | 0.20014371E-02 | 0.36615567E+03 |    8.775
 BASOPT|       17     |       1     | 0.10628126E-01 | 0.52180450E+03 |    8.777
 BASOPT|       18     |       1     | 0.26174233E-02 | 0.92360196E+03 |   15.610
 BASOPT|       19     |       1     | 0.15365454E-02 | 0.82313005E+03 |    7.195
 BASOPT|       20     |       1     | 0.57652567E-02 | 0.56729196E+03 |   11.796
 BASOPT|       21     |       1     | 0.66942827E-03 | 0.10456094E+03 |    7.584
 BASOPT|       22     |       1     | 0.54859868E-02 | 0.31531299E+03 |    1.732
 BASOPT|       23     |       1     | 0.62672756E-03 | 0.17943732E+03 |    1.152
 BASOPT|       24     |       1     | 0.13999189E-01 | 0.11557485E+04 |   13.247
 BASOPT|       25     |       1     | 0.55853056E-02 | 0.45814313E+03 |    4.667
 BASOPT|       26     |       1     | 0.93061967E-02 | 0.45010949E+03 |    3.623
 BASOPT|       27     |       1     | 0.51155954E-02 | 0.14394335E+03 |    1.920
 BASOPT|       28     |       1     | 0.72006081E-03 | 0.97735203E+02 |    1.008
 BASOPT|       29     |       1     | 0.13411892E-02 | 0.66133195E+03 |    3.459
 BASOPT|       30     |       1     | 0.92353887E-03 | 0.10905203E+03 |    1.237
 BASOPT|       31     |       1     | 0.17153423E-02 | 0.87573354E+03 |    3.315
 BASOPT|       32     |       1     | 0.95260028E-02 | 0.13220265E+04 |    4.022
 BASOPT|       33     |       1     | 0.13343162E-01 | 0.19981935E+04 |    6.827
 BASOPT|       34     |       1     | 0.56097131E-02 | 0.75014189E+03 |    2.251
 BASOPT|       35     |       1     | 0.18639045E-02 | 0.12566212E+04 |    3.390
 BASOPT|       36     |       1     | 0.22269325E-02 | 0.11299053E+04 |    9.303
 BASOPT|       37     |       1     | 0.17580510E-02 | 0.10882693E+04 |    1.071
 BASOPT|       38     |       1     | 0.22723285E-02 | 0.10273339E+04 |    3.969
 BASOPT|       39     |       1     | 0.19074825E-02 | 0.11272232E+04 |    4.246
 BASOPT|       40     |       1     | 0.13565906E-02 | 0.15232390E+03 |    3.725
 BASOPT|       41     |       1     | 0.21005198E-02 | 0.26299942E+03 |    9.164
 BASOPT|       42     |       1     | 0.51363559E-02 | 0.34962917E+03 |    2.429
 BASOPT| -----------------------------------------------------------------------
 BASOPT| Total residuum value: -.34461340E+04

 BASOPT| Information at iteration number:     400
 BASOPT| Training set | Combination | Rho difference | Condition num. | Time
 BASOPT| -----------------------------------------------------------------------
 BASOPT|        1     |       1     | 0.97887042E-03 | 0.34215051E+03 |   24.993
 BASOPT|        2     |       1     | 0.26217243E-02 | 0.54781921E+03 |    7.810
 BASOPT|        3     |       1     | 0.26669669E-02 | 0.11509338E+04 |   74.486
 BASOPT|        4     |       1     | 0.30619480E-02 | 0.40829341E+03 |   24.943
 BASOPT|        5     |       1     | 0.20004940E-02 | 0.23954231E+03 |    5.628
 BASOPT|        6     |       1     | 0.20189321E-02 | 0.64220429E+03 |   16.637
 BASOPT|        7     |       1     | 0.22241205E-02 | 0.40389063E+03 |   25.164
 BASOPT|        8     |       1     | 0.49556541E-03 | 0.83044617E+02 |    4.356
 BASOPT|        9     |       1     | 0.11383515E-02 | 0.95733711E+03 |    9.025
 BASOPT|       10     |       1     | 0.10905403E-02 | 0.76585384E+03 |   16.631
 BASOPT|       11     |       1     | 0.13511535E-02 | 0.62259875E+03 |   34.743
 BASOPT|       12     |       1     | 0.34999928E-02 | 0.31986625E+04 |   74.083
 BASOPT|       13     |       1     | 0.26860852E-02 | 0.78595738E+03 |   54.573
 BASOPT|       14     |       1     | 0.32894963E-02 | 0.42818450E+04 |  100.300
 BASOPT|       15     |       1     | 0.30702473E-02 | 0.41676178E+03 |   12.637
 BASOPT|       16     |       1     | 0.18208382E-02 | 0.34698261E+03 |   11.691
 BASOPT|       17     |       1     | 0.21224891E-02 | 0.48305375E+03 |   11.694
 BASOPT|       18     |       1     | 0.27529064E-02 | 0.94314653E+03 |   20.795
 BASOPT|       19     |       1     | 0.15629613E-02 | 0.79676283E+03 |    9.586
 BASOPT|       20     |       1     | 0.16586460E-02 | 0.54888481E+03 |   15.715
 BASOPT|       21     |       1     | 0.62293027E-03 | 0.98904934E+02 |   10.103
 BASOPT|       22     |       1     | 0.17671618E-02 | 0.31618089E+03 |    2.307
 BASOPT|       23     |       1     | 0.50814212E-03 | 0.17596262E+03 |    1.534
 BASOPT|       24     |       1     | 0.27280179E-02 | 0.11363408E+04 |   17.648
 BASOPT|       25     |       1     | 0.16460971E-02 | 0.44251244E+03 |    6.217
 BASOPT|       26     |       1     | 0.15359411E-02 | 0.38404643E+03 |    4.827
 BASOPT|       27     |       1     | 0.11091179E-02 | 0.12954685E+03 |    2.557
 BASOPT|       28     |       1     | 0.81984067E-03 | 0.10191435E+03 |    1.343
 BASOPT|       29     |       1     | 0.13454983E-02 | 0.63109356E+03 |    4.605
 BASOPT|       30     |       1     | 0.86159275E-03 | 0.11075515E+03 |    1.647
 BASOPT|       31     |       1     | 0.17628172E-02 | 0.84128599E+03 |    4.415
 BASOPT|       32     |       1     | 0.21086578E-02 | 0.13308904E+04 |    5.358
 BASOPT|       33     |       1     | 0.24169832E-02 | 0.19831201E+04 |    9.096
 BASOPT|       34     |       1     | 0.18483654E-02 | 0.74471426E+03 |    2.999
 BASOPT|       35     |       1     | 0.18887995E-02 | 0.12304321E+04 |    4.516
 BASOPT|       36     |       1     | 0.22892306E-02 | 0.11023793E+04 |   12.394
 BASOPT|       37     |       1     | 0.17191621E-02 | 0.10909566E+04 |    1.427
 BASOPT|       38     |       1     | 0.22375355E-02 | 0.10313210E+04 |    5.284
 BASOPT|       39     |       1     | 0.16340997E-02 | 0.11220302E+04 |    5.656
 BASOPT|       40     |       1     | 0.13962034E-02 | 0.14898614E+03 |    4.959
 BASOPT|       41     |       1     | 0.20864373E-02 | 0.25820320E+03 |   12.208
 BASOPT|       42     |       1     | 0.10611336E-02 | 0.32054024E+03 |    3.234
 BASOPT| -----------------------------------------------------------------------
 BASOPT| Total residuum value: -.34555084E+04

 BASOPT| Information at iteration number:     500
 BASOPT| Training set | Combination | Rho difference | Condition num. | Time
 BASOPT| -----------------------------------------------------------------------
 BASOPT|        1     |       1     | 0.10191757E-02 | 0.34400829E+03 |   31.230
 BASOPT|        2     |       1     | 0.26179167E-02 | 0.55001902E+03 |    9.758
 BASOPT|        3     |       1     | 0.27204461E-02 | 0.11659343E+04 |   93.059
 BASOPT|        4     |       1     | 0.29080380E-02 | 0.40790325E+03 |   31.164
 BASOPT|        5     |       1     | 0.20569165E-02 | 0.24951604E+03 |    7.033
 BASOPT|        6     |       1     | 0.20375998E-02 | 0.67936056E+03 |   20.788
 BASOPT|        7     |       1     | 0.23104804E-02 | 0.40454677E+03 |   31.439
 BASOPT|        8     |       1     | 0.52527127E-03 | 0.84815432E+02 |    5.441
 BASOPT|        9     |       1     | 0.11469575E-02 | 0.10407084E+04 |   11.276
 BASOPT|       10     |       1     | 0.11110481E-02 | 0.81712436E+03 |   20.778
 BASOPT|       11     |       1     | 0.13540335E-02 | 0.65102980E+03 |   43.407
 BASOPT|       12     |       1     | 0.34376975E-02 | 0.32658887E+04 |   92.555
 BASOPT|       13     |       1     | 0.26885405E-02 | 0.83333932E+03 |   68.176
 BASOPT|       14     |       1     | 0.32235139E-02 | 0.43053936E+04 |  125.317
 BASOPT|       15     |       1     | 0.31212395E-02 | 0.45838858E+03 |   15.790
 BASOPT|       16     |       1     | 0.18169757E-02 | 0.37748042E+03 |   14.607
 BASOPT|       17     |       1     | 0.21473633E-02 | 0.51193410E+03 |   14.613
 BASOPT|       18     |       1     | 0.27384689E-02 | 0.10132244E+04 |   25.979
 BASOPT|       19     |       1     | 0.15849407E-02 | 0.82468564E+03 |   11.976
 BASOPT|       20     |       1     | 0.16871304E-02 | 0.56543879E+03 |   19.635
 BASOPT|       21     |       1     | 0.62800440E-03 | 0.10171500E+03 |   12.622
 BASOPT|       22     |       1     | 0.17537594E-02 | 0.33366603E+03 |    2.882
 BASOPT|       23     |       1     | 0.51597453E-03 | 0.17664892E+03 |    1.916
 BASOPT|       24     |       1     | 0.27773777E-02 | 0.11401586E+04 |   22.051
 BASOPT|       25     |       1     | 0.16581186E-02 | 0.46875594E+03 |    7.767
 BASOPT|       26     |       1     | 0.15686631E-02 | 0.37660044E+03 |    6.030
 BASOPT|       27     |       1     | 0.11419290E-02 | 0.13185703E+03 |    3.192
 BASOPT|       28     |       1     | 0.85609022E-03 | 0.10426629E+03 |    1.678
 BASOPT|       29     |       1     | 0.13219057E-02 | 0.66945916E+03 |    5.751
 BASOPT|       30     |       1     | 0.84760295E-03 | 0.10889452E+03 |    2.059
 BASOPT|       31     |       1     | 0.17496794E-02 | 0.86438415E+03 |    5.516
 BASOPT|       32     |       1     | 0.21437927E-02 | 0.12997893E+04 |    6.693
 BASOPT|       33     |       1     | 0.24385571E-02 | 0.18871723E+04 |   11.366
 BASOPT|       34     |       1     | 0.18700660E-02 | 0.72668370E+03 |    3.747
 BASOPT|       35     |       1     | 0.19107409E-02 | 0.11698478E+04 |    5.641
 BASOPT|       36     |       1     | 0.24015769E-02 | 0.10512437E+04 |   15.484
 BASOPT|       37     |       1     | 0.16648800E-02 | 0.10399553E+04 |    1.780
 BASOPT|       38     |       1     | 0.21862392E-02 | 0.98718662E+03 |    6.599
 BASOPT|       39     |       1     | 0.16965974E-02 | 0.10644276E+04 |    7.066
 BASOPT|       40     |       1     | 0.14855157E-02 | 0.15466546E+03 |    6.198
 BASOPT|       41     |       1     | 0.20789914E-02 | 0.25216625E+03 |   15.251
 BASOPT|       42     |       1     | 0.10744751E-02 | 0.31690574E+03 |    4.038
 BASOPT| -----------------------------------------------------------------------
 BASOPT| Total residuum value: -.34555242E+04

 BASOPT| Information at iteration number:     600
 BASOPT| Training set | Combination | Rho difference | Condition num. | Time
 BASOPT| -----------------------------------------------------------------------
 BASOPT|        1     |       1     | 0.10118601E-02 | 0.34682452E+03 |   37.470
 BASOPT|        2     |       1     | 0.25901830E-02 | 0.54056841E+03 |   11.705
 BASOPT|        3     |       1     | 0.27141655E-02 | 0.11532745E+04 |  111.631
 BASOPT|        4     |       1     | 0.27933563E-02 | 0.41000407E+03 |   37.383
 BASOPT|        5     |       1     | 0.19510162E-02 | 0.25643579E+03 |    8.437
 BASOPT|        6     |       1     | 0.20174762E-02 | 0.67294436E+03 |   24.941
 BASOPT|        7     |       1     | 0.23074539E-02 | 0.40963378E+03 |   37.714
 BASOPT|        8     |       1     | 0.52144812E-03 | 0.85242403E+02 |    6.529
 BASOPT|        9     |       1     | 0.11309283E-02 | 0.92768905E+03 |   13.526
 BASOPT|       10     |       1     | 0.11622499E-02 | 0.74387236E+03 |   24.927
 BASOPT|       11     |       1     | 0.14366027E-02 | 0.60565209E+03 |   52.072
 BASOPT|       12     |       1     | 0.34502217E-02 | 0.33868954E+04 |  111.030
 BASOPT|       13     |       1     | 0.26935178E-02 | 0.76184897E+03 |   81.784
 BASOPT|       14     |       1     | 0.32268013E-02 | 0.44313592E+04 |  150.330
 BASOPT|       15     |       1     | 0.30493798E-02 | 0.46591471E+03 |   18.942
 BASOPT|       16     |       1     | 0.18232490E-02 | 0.38361130E+03 |   17.522
 BASOPT|       17     |       1     | 0.21790579E-02 | 0.50077143E+03 |   17.531
 BASOPT|       18     |       1     | 0.26968546E-02 | 0.91461653E+03 |   31.164
 BASOPT|       19     |       1     | 0.16061745E-02 | 0.81730379E+03 |   14.365
 BASOPT|       20     |       1     | 0.17257745E-02 | 0.55631053E+03 |   23.564
 BASOPT|       21     |       1     | 0.69734442E-03 | 0.10324967E+03 |   15.140
 BASOPT|       22     |       1     | 0.17205870E-02 | 0.33711371E+03 |    3.456
 BASOPT|       23     |       1     | 0.50358737E-03 | 0.18227830E+03 |    2.298
 BASOPT|       24     |       1     | 0.27904909E-02 | 0.11350034E+04 |   26.451
 BASOPT|       25     |       1     | 0.16719252E-02 | 0.46935390E+03 |    9.318
 BASOPT|       26     |       1     | 0.15702923E-02 | 0.37021962E+03 |    7.234
 BASOPT|       27     |       1     | 0.11288049E-02 | 0.12975570E+03 |    3.828
 BASOPT|       28     |       1     | 0.88641168E-03 | 0.10568003E+03 |    2.013
 BASOPT|       29     |       1     | 0.13165734E-02 | 0.67187144E+03 |    6.898
 BASOPT|       30     |       1     | 0.81509002E-03 | 0.11048091E+03 |    2.469
 BASOPT|       31     |       1     | 0.17368720E-02 | 0.86511478E+03 |    6.617
 BASOPT|       32     |       1     | 0.21243517E-02 | 0.12590347E+04 |    8.029
 BASOPT|       33     |       1     | 0.24380088E-02 | 0.17992501E+04 |   13.637
 BASOPT|       34     |       1     | 0.18692807E-02 | 0.71798547E+03 |    4.495
 BASOPT|       35     |       1     | 0.19016340E-02 | 0.11810915E+04 |    6.772
 BASOPT|       36     |       1     | 0.23704252E-02 | 0.10588655E+04 |   18.573
 BASOPT|       37     |       1     | 0.17097649E-02 | 0.10558295E+04 |    2.132
 BASOPT|       38     |       1     | 0.21928333E-02 | 0.99423545E+03 |    7.917
 BASOPT|       39     |       1     | 0.16083787E-02 | 0.11247008E+04 |    8.476
 BASOPT|       40     |       1     | 0.14578813E-02 | 0.15431399E+03 |    7.435
 BASOPT|       41     |       1     | 0.20405524E-02 | 0.26040889E+03 |   18.295
 BASOPT|       42     |       1     | 0.10500209E-02 | 0.32070879E+03 |    4.843
 BASOPT| -----------------------------------------------------------------------
 BASOPT| Total residuum value: -.34555507E+04

 BASOPT| Information at iteration number:     700
 BASOPT| Training set | Combination | Rho difference | Condition num. | Time
 BASOPT| -----------------------------------------------------------------------
 BASOPT|        1     |       1     | 0.10441780E-02 | 0.35749152E+03 |   43.705
 BASOPT|        2     |       1     | 0.25287845E-02 | 0.57651395E+03 |   13.651
 BASOPT|        3     |       1     | 0.27146880E-02 | 0.12174439E+04 |  130.207
 BASOPT|        4     |       1     | 0.26176441E-02 | 0.43258771E+03 |   43.611
 BASOPT|        5     |       1     | 0.20212166E-02 | 0.25787345E+03 |    9.841
 BASOPT|        6     |       1     | 0.20317050E-02 | 0.62655140E+03 |   29.090
 BASOPT|        7     |       1     | 0.23198246E-02 | 0.40303391E+03 |   43.989
 BASOPT|        8     |       1     | 0.54775477E-03 | 0.82551666E+02 |    7.615
 BASOPT|        9     |       1     | 0.11217836E-02 | 0.80966912E+03 |   15.776
 BASOPT|       10     |       1     | 0.11166081E-02 | 0.66386347E+03 |   29.075
 BASOPT|       11     |       1     | 0.13916990E-02 | 0.55303511E+03 |   60.737
 BASOPT|       12     |       1     | 0.34160976E-02 | 0.34114756E+04 |  129.501
 BASOPT|       13     |       1     | 0.26561666E-02 | 0.69179826E+03 |   95.393
 BASOPT|       14     |       1     | 0.31889593E-02 | 0.44550591E+04 |  175.342
 BASOPT|       15     |       1     | 0.30908771E-02 | 0.44623902E+03 |   22.096
 BASOPT|       16     |       1     | 0.18376832E-02 | 0.35931499E+03 |   20.436
 BASOPT|       17     |       1     | 0.21296894E-02 | 0.47062091E+03 |   20.449
 BASOPT|       18     |       1     | 0.26594391E-02 | 0.81452493E+03 |   36.348
 BASOPT|       19     |       1     | 0.15605117E-02 | 0.75809408E+03 |   16.748
 BASOPT|       20     |       1     | 0.16923495E-02 | 0.52698104E+03 |   27.515
 BASOPT|       21     |       1     | 0.66189254E-03 | 0.98772248E+02 |   17.659
 BASOPT|       22     |       1     | 0.17943366E-02 | 0.32087651E+03 |    4.031
 BASOPT|       23     |       1     | 0.51013338E-03 | 0.18205645E+03 |    2.679
 BASOPT|       24     |       1     | 0.27362929E-02 | 0.11130429E+04 |   30.851
 BASOPT|       25     |       1     | 0.16621378E-02 | 0.44041294E+03 |   10.869
 BASOPT|       26     |       1     | 0.15319065E-02 | 0.36820521E+03 |    8.438
 BASOPT|       27     |       1     | 0.11182699E-02 | 0.12505819E+03 |    4.465
 BASOPT|       28     |       1     | 0.86754329E-03 | 0.10171205E+03 |    2.348
 BASOPT|       29     |       1     | 0.13180288E-02 | 0.62790495E+03 |    8.050
 BASOPT|       30     |       1     | 0.82455493E-03 | 0.10766406E+03 |    2.880
 BASOPT|       31     |       1     | 0.18100872E-02 | 0.80660207E+03 |    7.718
 BASOPT|       32     |       1     | 0.21230454E-02 | 0.12206682E+04 |    9.365
 BASOPT|       33     |       1     | 0.24240938E-02 | 0.17819477E+04 |   15.908
 BASOPT|       34     |       1     | 0.18685331E-02 | 0.68476751E+03 |    5.242
 BASOPT|       35     |       1     | 0.18896081E-02 | 0.11146242E+04 |    7.916
 BASOPT|       36     |       1     | 0.22812998E-02 | 0.10001415E+04 |   21.660
 BASOPT|       37     |       1     | 0.17150950E-02 | 0.10061556E+04 |    2.484
 BASOPT|       38     |       1     | 0.22478885E-02 | 0.96001192E+03 |    9.235
 BASOPT|       39     |       1     | 0.16662337E-02 | 0.10675245E+04 |    9.887
 BASOPT|       40     |       1     | 0.13912708E-02 | 0.14269423E+03 |    8.675
 BASOPT|       41     |       1     | 0.20528946E-02 | 0.25348127E+03 |   21.340
 BASOPT|       42     |       1     | 0.10484620E-02 | 0.32192033E+03 |    5.647
 BASOPT| -----------------------------------------------------------------------
 BASOPT| Total residuum value: -.34555790E+04

 BASOPT| Information at iteration number:     800
 BASOPT| Training set | Combination | Rho difference | Condition num. | Time
 BASOPT| -----------------------------------------------------------------------
 BASOPT|        1     |       1     | 0.10033828E-02 | 0.35444295E+03 |   49.945
 BASOPT|        2     |       1     | 0.25363425E-02 | 0.57537123E+03 |   15.597
 BASOPT|        3     |       1     | 0.26657460E-02 | 0.11941216E+04 |  148.786
 BASOPT|        4     |       1     | 0.26501872E-02 | 0.43391936E+03 |   49.834
 BASOPT|        5     |       1     | 0.19840054E-02 | 0.24426932E+03 |   11.246
 BASOPT|        6     |       1     | 0.20013811E-02 | 0.62435085E+03 |   33.241
 BASOPT|        7     |       1     | 0.22756582E-02 | 0.38610299E+03 |   50.263
 BASOPT|        8     |       1     | 0.52448193E-03 | 0.79876906E+02 |    8.704
 BASOPT|        9     |       1     | 0.11159846E-02 | 0.83843638E+03 |   18.028
 BASOPT|       10     |       1     | 0.11401240E-02 | 0.68198240E+03 |   33.224
 BASOPT|       11     |       1     | 0.14431746E-02 | 0.56272529E+03 |   69.400
 BASOPT|       12     |       1     | 0.34907927E-02 | 0.33683123E+04 |  147.971
 BASOPT|       13     |       1     | 0.26854483E-02 | 0.71195805E+03 |  109.000
 BASOPT|       14     |       1     | 0.32789906E-02 | 0.44105380E+04 |  200.353
 BASOPT|       15     |       1     | 0.30118930E-02 | 0.43527366E+03 |   25.254
 BASOPT|       16     |       1     | 0.18437214E-02 | 0.35446969E+03 |   23.355
 BASOPT|       17     |       1     | 0.21390479E-02 | 0.47132511E+03 |   23.366
 BASOPT|       18     |       1     | 0.27202523E-02 | 0.84022572E+03 |   41.532
 BASOPT|       19     |       1     | 0.15990604E-02 | 0.74852098E+03 |   19.131
 BASOPT|       20     |       1     | 0.17240710E-02 | 0.52348460E+03 |   31.465
 BASOPT|       21     |       1     | 0.68084884E-03 | 0.96051947E+02 |   20.179
 BASOPT|       22     |       1     | 0.17523049E-02 | 0.31995927E+03 |    4.606
 BASOPT|       23     |       1     | 0.49037781E-03 | 0.17883637E+03 |    3.061
 BASOPT|       24     |       1     | 0.27271160E-02 | 0.11035328E+04 |   35.251
 BASOPT|       25     |       1     | 0.16827135E-02 | 0.43755702E+03 |   12.427
 BASOPT|       26     |       1     | 0.15203227E-02 | 0.36321093E+03 |    9.644
 BASOPT|       27     |       1     | 0.11234586E-02 | 0.12102279E+03 |    5.101
 BASOPT|       28     |       1     | 0.91188694E-03 | 0.97906951E+02 |    2.683
 BASOPT|       29     |       1     | 0.13131708E-02 | 0.61999572E+03 |    9.201
 BASOPT|       30     |       1     | 0.82937797E-03 | 0.10551904E+03 |    3.291
 BASOPT|       31     |       1     | 0.17557571E-02 | 0.79259412E+03 |    8.820
 BASOPT|       32     |       1     | 0.21174402E-02 | 0.12304291E+04 |   10.700
 BASOPT|       33     |       1     | 0.23818729E-02 | 0.17707789E+04 |   18.180
 BASOPT|       34     |       1     | 0.18641723E-02 | 0.68283471E+03 |    5.990
 BASOPT|       35     |       1     | 0.18934092E-02 | 0.10846003E+04 |    9.060
 BASOPT|       36     |       1     | 0.23539255E-02 | 0.96876553E+03 |   24.747
 BASOPT|       37     |       1     | 0.16791054E-02 | 0.98654731E+03 |    2.836
 BASOPT|       38     |       1     | 0.21544470E-02 | 0.94274270E+03 |   10.552
 BASOPT|       39     |       1     | 0.16092255E-02 | 0.10281000E+04 |   11.301
 BASOPT|       40     |       1     | 0.14494863E-02 | 0.13927120E+03 |    9.911
 BASOPT|       41     |       1     | 0.20917291E-02 | 0.25070333E+03 |   24.385
 BASOPT|       42     |       1     | 0.10123332E-02 | 0.31684389E+03 |    6.452
 BASOPT| -----------------------------------------------------------------------
 BASOPT| Total residuum value: -.34555945E+04

 BASOPT| Information at iteration number:     900
 BASOPT| Training set | Combination | Rho difference | Condition num. | Time
 BASOPT| -----------------------------------------------------------------------
 BASOPT|        1     |       1     | 0.10036963E-02 | 0.35326039E+03 |   56.185
 BASOPT|        2     |       1     | 0.25275521E-02 | 0.57788178E+03 |   17.543
 BASOPT|        3     |       1     | 0.26380568E-02 | 0.11938450E+04 |  167.365
 BASOPT|        4     |       1     | 0.26832549E-02 | 0.43499548E+03 |   56.066
 BASOPT|        5     |       1     | 0.19930365E-02 | 0.24659286E+03 |   12.650
 BASOPT|        6     |       1     | 0.20286006E-02 | 0.60355509E+03 |   37.397
 BASOPT|        7     |       1     | 0.23060018E-02 | 0.38530457E+03 |   56.539
 BASOPT|        8     |       1     | 0.53066227E-03 | 0.79023862E+02 |    9.792
 BASOPT|        9     |       1     | 0.11099257E-02 | 0.80914457E+03 |   20.279
 BASOPT|       10     |       1     | 0.11231266E-02 | 0.65720908E+03 |   37.373
 BASOPT|       11     |       1     | 0.14290757E-02 | 0.54419567E+03 |   78.062
 BASOPT|       12     |       1     | 0.34603954E-02 | 0.32724635E+04 |  166.447
 BASOPT|       13     |       1     | 0.26553353E-02 | 0.69232999E+03 |  122.610
 BASOPT|       14     |       1     | 0.32542219E-02 | 0.42994418E+04 |  225.368
 BASOPT|       15     |       1     | 0.30756801E-02 | 0.43533621E+03 |   28.421
 BASOPT|       16     |       1     | 0.18593403E-02 | 0.34928472E+03 |   26.272
 BASOPT|       17     |       1     | 0.21308522E-02 | 0.45683862E+03 |   26.284
 BASOPT|       18     |       1     | 0.27490708E-02 | 0.81371378E+03 |   46.716
 BASOPT|       19     |       1     | 0.16113867E-02 | 0.73098462E+03 |   21.514
 BASOPT|       20     |       1     | 0.17177235E-02 | 0.50996110E+03 |   35.416
 BASOPT|       21     |       1     | 0.66847410E-03 | 0.93670683E+02 |   22.698
 BASOPT|       22     |       1     | 0.17726588E-02 | 0.31268873E+03 |    5.181
 BASOPT|       23     |       1     | 0.50432997E-03 | 0.18113794E+03 |    3.443
 BASOPT|       24     |       1     | 0.27055877E-02 | 0.10940091E+04 |   39.652
 BASOPT|       25     |       1     | 0.16878553E-02 | 0.42286482E+03 |   13.980
 BASOPT|       26     |       1     | 0.15092237E-02 | 0.36138633E+03 |   10.848
 BASOPT|       27     |       1     | 0.11202510E-02 | 0.11939305E+03 |    5.737
 BASOPT|       28     |       1     | 0.95523358E-03 | 0.97204805E+02 |    3.018
 BASOPT|       29     |       1     | 0.13047920E-02 | 0.60040104E+03 |   10.348
 BASOPT|       30     |       1     | 0.80634186E-03 | 0.10347955E+03 |    3.702
 BASOPT|       31     |       1     | 0.17442362E-02 | 0.77610276E+03 |    9.919
 BASOPT|       32     |       1     | 0.21088210E-02 | 0.12393043E+04 |   12.036
 BASOPT|       33     |       1     | 0.23577763E-02 | 0.17802231E+04 |   20.452
 BASOPT|       34     |       1     | 0.18713376E-02 | 0.69282636E+03 |    6.738
 BASOPT|       35     |       1     | 0.19030427E-02 | 0.11075560E+04 |   10.204
 BASOPT|       36     |       1     | 0.23981170E-02 | 0.98085301E+03 |   27.833
 BASOPT|       37     |       1     | 0.16362805E-02 | 0.10213016E+04 |    3.188
 BASOPT|       38     |       1     | 0.20719298E-02 | 0.96193714E+03 |   11.871
 BASOPT|       39     |       1     | 0.16276932E-02 | 0.10797561E+04 |   12.715
 BASOPT|       40     |       1     | 0.14819524E-02 | 0.14003867E+03 |   11.145
 BASOPT|       41     |       1     | 0.20511483E-02 | 0.24482505E+03 |   27.429
 BASOPT|       42     |       1     | 0.10280157E-02 | 0.32072707E+03 |    7.256
 BASOPT| -----------------------------------------------------------------------
 BASOPT| Total residuum value: -.34556150E+04

 BASOPT| Information at iteration number:    1000
 BASOPT| Training set | Combination | Rho difference | Condition num. | Time
 BASOPT| -----------------------------------------------------------------------
 BASOPT|        1     |       1     | 0.10347632E-02 | 0.33886960E+03 |   62.427
 BASOPT|        2     |       1     | 0.24727655E-02 | 0.55877000E+03 |   19.488
 BASOPT|        3     |       1     | 0.27142483E-02 | 0.11647164E+04 |  185.945
 BASOPT|        4     |       1     | 0.24782281E-02 | 0.42036809E+03 |   62.299
 BASOPT|        5     |       1     | 0.20235761E-02 | 0.25313001E+03 |   14.053
 BASOPT|        6     |       1     | 0.20431064E-02 | 0.57322100E+03 |   41.549
 BASOPT|        7     |       1     | 0.23745257E-02 | 0.37603561E+03 |   62.814
 BASOPT|        8     |       1     | 0.55852263E-03 | 0.75775444E+02 |   10.876
 BASOPT|        9     |       1     | 0.11180775E-02 | 0.66819841E+03 |   22.529
 BASOPT|       10     |       1     | 0.11174923E-02 | 0.55699231E+03 |   41.521
 BASOPT|       11     |       1     | 0.14230075E-02 | 0.47636291E+03 |   86.725
 BASOPT|       12     |       1     | 0.34311778E-02 | 0.33104046E+04 |  184.916
 BASOPT|       13     |       1     | 0.26408011E-02 | 0.59472158E+03 |  136.219
 BASOPT|       14     |       1     | 0.32134704E-02 | 0.43264975E+04 |  250.376
 BASOPT|       15     |       1     | 0.30613791E-02 | 0.44629190E+03 |   31.581
 BASOPT|       16     |       1     | 0.18391621E-02 | 0.33789871E+03 |   29.201
 BASOPT|       17     |       1     | 0.20951548E-02 | 0.42600384E+03 |   29.202
 BASOPT|       18     |       1     | 0.27436534E-02 | 0.68543115E+03 |   51.900
 BASOPT|       19     |       1     | 0.16146718E-02 | 0.67572581E+03 |   23.896
 BASOPT|       20     |       1     | 0.17221622E-02 | 0.48223375E+03 |   39.367
 BASOPT|       21     |       1     | 0.66988818E-03 | 0.90595804E+02 |   25.217
 BASOPT|       22     |       1     | 0.18326357E-02 | 0.30266855E+03 |    5.756
 BASOPT|       23     |       1     | 0.52005306E-03 | 0.18301939E+03 |    3.824
 BASOPT|       24     |       1     | 0.26683931E-02 | 0.10791112E+04 |   44.056
 BASOPT|       25     |       1     | 0.16878029E-02 | 0.40412598E+03 |   15.531
 BASOPT|       26     |       1     | 0.15051498E-02 | 0.35436525E+03 |   12.052
 BASOPT|       27     |       1     | 0.11276741E-02 | 0.11464876E+03 |    6.372
 BASOPT|       28     |       1     | 0.97804817E-03 | 0.90664710E+02 |    3.354
 BASOPT|       29     |       1     | 0.13008468E-02 | 0.56396283E+03 |   11.495
 BASOPT|       30     |       1     | 0.78923234E-03 | 0.98498072E+02 |    4.113
 BASOPT|       31     |       1     | 0.18443238E-02 | 0.72282542E+03 |   11.022
 BASOPT|       32     |       1     | 0.21170629E-02 | 0.12119173E+04 |   13.371
 BASOPT|       33     |       1     | 0.23486127E-02 | 0.17528742E+04 |   22.724
 BASOPT|       34     |       1     | 0.18747686E-02 | 0.66949299E+03 |    7.486
 BASOPT|       35     |       1     | 0.19103858E-02 | 0.10554402E+04 |   11.348
 BASOPT|       36     |       1     | 0.24096396E-02 | 0.93424800E+03 |   30.920
 BASOPT|       37     |       1     | 0.16208445E-02 | 0.97867533E+03 |    3.541
 BASOPT|       38     |       1     | 0.20938215E-02 | 0.92890281E+03 |   13.189
 BASOPT|       39     |       1     | 0.16475459E-02 | 0.10595425E+04 |   14.126
 BASOPT|       40     |       1     | 0.14894845E-02 | 0.13153542E+03 |   12.378
 BASOPT|       41     |       1     | 0.20310973E-02 | 0.24053935E+03 |   30.473
 BASOPT|       42     |       1     | 0.10174014E-02 | 0.32262092E+03 |    8.061
 BASOPT| -----------------------------------------------------------------------
 BASOPT| Total residuum value: -.34556236E+04

 BASOPT| Information at iteration number:    1100
 BASOPT| Training set | Combination | Rho difference | Condition num. | Time
 BASOPT| -----------------------------------------------------------------------
 BASOPT|        1     |       1     | 0.99967008E-03 | 0.33295569E+03 |   68.672
 BASOPT|        2     |       1     | 0.25287570E-02 | 0.55260385E+03 |   21.436
 BASOPT|        3     |       1     | 0.26414710E-02 | 0.11397532E+04 |  204.522
 BASOPT|        4     |       1     | 0.25981587E-02 | 0.41943565E+03 |   68.528
 BASOPT|        5     |       1     | 0.19905421E-02 | 0.24552621E+03 |   15.458
 BASOPT|        6     |       1     | 0.20570952E-02 | 0.56580542E+03 |   45.701
 BASOPT|        7     |       1     | 0.23461712E-02 | 0.36215890E+03 |   69.090
 BASOPT|        8     |       1     | 0.53252237E-03 | 0.73328577E+02 |   11.964
 BASOPT|        9     |       1     | 0.11146972E-02 | 0.67654084E+03 |   24.779
 BASOPT|       10     |       1     | 0.11163312E-02 | 0.55741698E+03 |   45.670
 BASOPT|       11     |       1     | 0.14155068E-02 | 0.47273283E+03 |   95.392
 BASOPT|       12     |       1     | 0.34072248E-02 | 0.33241553E+04 |  203.401
 BASOPT|       13     |       1     | 0.26007363E-02 | 0.60089082E+03 |  149.824
 BASOPT|       14     |       1     | 0.31923355E-02 | 0.43439831E+04 |  275.387
 BASOPT|       15     |       1     | 0.30755383E-02 | 0.44081643E+03 |   34.743
 BASOPT|       16     |       1     | 0.18519805E-02 | 0.33220108E+03 |   32.132
 BASOPT|       17     |       1     | 0.21193114E-02 | 0.42154074E+03 |   32.120
 BASOPT|       18     |       1     | 0.27265944E-02 | 0.69292956E+03 |   57.084
 BASOPT|       19     |       1     | 0.16103656E-02 | 0.67988339E+03 |   26.279
 BASOPT|       20     |       1     | 0.17239127E-02 | 0.46658127E+03 |   43.316
 BASOPT|       21     |       1     | 0.66067219E-03 | 0.86581028E+02 |   27.735
 BASOPT|       22     |       1     | 0.18261480E-02 | 0.30231871E+03 |    6.330
 BASOPT|       23     |       1     | 0.51779914E-03 | 0.18089193E+03 |    4.206
 BASOPT|       24     |       1     | 0.27159739E-02 | 0.10452561E+04 |   48.459
 BASOPT|       25     |       1     | 0.16901275E-02 | 0.39779987E+03 |   17.083
 BASOPT|       26     |       1     | 0.15396720E-02 | 0.34161254E+03 |   13.256
 BASOPT|       27     |       1     | 0.11351048E-02 | 0.10767396E+03 |    7.045
 BASOPT|       28     |       1     | 0.10339037E-02 | 0.86418454E+02 |    3.705
 BASOPT|       29     |       1     | 0.12981445E-02 | 0.57411282E+03 |   12.645
 BASOPT|       30     |       1     | 0.79017426E-03 | 0.93890816E+02 |    4.524
 BASOPT|       31     |       1     | 0.18120191E-02 | 0.73492951E+03 |   12.123
 BASOPT|       32     |       1     | 0.21140337E-02 | 0.11613677E+04 |   14.707
 BASOPT|       33     |       1     | 0.23815200E-02 | 0.16693341E+04 |   24.995
 BASOPT|       34     |       1     | 0.18848128E-02 | 0.66227939E+03 |    8.234
 BASOPT|       35     |       1     | 0.19066248E-02 | 0.10866538E+04 |   12.492
 BASOPT|       36     |       1     | 0.23867490E-02 | 0.94155324E+03 |   34.004
 BASOPT|       37     |       1     | 0.16129887E-02 | 0.10311702E+04 |    3.893
 BASOPT|       38     |       1     | 0.20567265E-02 | 0.96610657E+03 |   14.504
 BASOPT|       39     |       1     | 0.16432238E-02 | 0.10913979E+04 |   15.537
 BASOPT|       40     |       1     | 0.14709002E-02 | 0.12250455E+03 |   13.588
 BASOPT|       41     |       1     | 0.20132330E-02 | 0.22984075E+03 |   33.517
 BASOPT|       42     |       1     | 0.10512642E-02 | 0.31651910E+03 |    8.866
 BASOPT| -----------------------------------------------------------------------
 BASOPT| Total residuum value: -.34556455E+04

 BASOPT| Information at iteration number:    1200
 BASOPT| Training set | Combination | Rho difference | Condition num. | Time
 BASOPT| -----------------------------------------------------------------------
 BASOPT|        1     |       1     | 0.99823108E-03 | 0.33190214E+03 |   74.966
 BASOPT|        2     |       1     | 0.24671382E-02 | 0.56039165E+03 |   23.403
 BASOPT|        3     |       1     | 0.27300717E-02 | 0.11506261E+04 |  223.097
 BASOPT|        4     |       1     | 0.24455301E-02 | 0.42292855E+03 |   74.755
 BASOPT|        5     |       1     | 0.19594194E-02 | 0.25009066E+03 |   16.863
 BASOPT|        6     |       1     | 0.20623665E-02 | 0.55486805E+03 |   49.850
 BASOPT|        7     |       1     | 0.23876877E-02 | 0.35803555E+03 |   75.367
 BASOPT|        8     |       1     | 0.54016321E-03 | 0.71472265E+02 |   13.053
 BASOPT|        9     |       1     | 0.11117414E-02 | 0.67269708E+03 |   27.031
 BASOPT|       10     |       1     | 0.11190207E-02 | 0.55042173E+03 |   49.820
 BASOPT|       11     |       1     | 0.14434780E-02 | 0.46523387E+03 |  104.046
 BASOPT|       12     |       1     | 0.35046790E-02 | 0.32714751E+04 |  221.870
 BASOPT|       13     |       1     | 0.26412005E-02 | 0.59588360E+03 |  163.427
 BASOPT|       14     |       1     | 0.32755810E-02 | 0.42964051E+04 |  300.395
 BASOPT|       15     |       1     | 0.30255335E-02 | 0.43933258E+03 |   37.906
 BASOPT|       16     |       1     | 0.18504571E-02 | 0.32879023E+03 |   35.057
 BASOPT|       17     |       1     | 0.21223261E-02 | 0.41517970E+03 |   35.037
 BASOPT|       18     |       1     | 0.27865785E-02 | 0.68805020E+03 |   62.266
 BASOPT|       19     |       1     | 0.16362579E-02 | 0.66617011E+03 |   28.662
 BASOPT|       20     |       1     | 0.17483356E-02 | 0.45601756E+03 |   47.266
 BASOPT|       21     |       1     | 0.66417134E-03 | 0.83926699E+02 |   30.254
 BASOPT|       22     |       1     | 0.18237358E-02 | 0.29864409E+03 |    6.904
 BASOPT|       23     |       1     | 0.51047330E-03 | 0.18071026E+03 |    4.588
 BASOPT|       24     |       1     | 0.26986474E-02 | 0.10229728E+04 |   52.862
 BASOPT|       25     |       1     | 0.17085514E-02 | 0.39039937E+03 |   18.634
 BASOPT|       26     |       1     | 0.15249074E-02 | 0.33713781E+03 |   14.460
 BASOPT|       27     |       1     | 0.11421319E-02 | 0.10472754E+03 |    7.737
 BASOPT|       28     |       1     | 0.10676013E-02 | 0.82527991E+02 |    4.064
 BASOPT|       29     |       1     | 0.13019353E-02 | 0.56467080E+03 |   13.792
 BASOPT|       30     |       1     | 0.77990580E-03 | 0.91342738E+02 |    4.935
 BASOPT|       31     |       1     | 0.18293621E-02 | 0.72143833E+03 |   13.227
 BASOPT|       32     |       1     | 0.21188320E-02 | 0.11417240E+04 |   16.044
 BASOPT|       33     |       1     | 0.23559678E-02 | 0.16500394E+04 |   27.266
 BASOPT|       34     |       1     | 0.19000060E-02 | 0.65051706E+03 |    8.981
 BASOPT|       35     |       1     | 0.19406894E-02 | 0.10634247E+04 |   13.636
 BASOPT|       36     |       1     | 0.24325835E-02 | 0.92044322E+03 |   37.089
 BASOPT|       37     |       1     | 0.15970429E-02 | 0.10131092E+04 |    4.245
 BASOPT|       38     |       1     | 0.21642095E-02 | 0.95780450E+03 |   15.821
 BASOPT|       39     |       1     | 0.16267024E-02 | 0.10943121E+04 |   16.947
 BASOPT|       40     |       1     | 0.14938908E-02 | 0.11739762E+03 |   14.781
 BASOPT|       41     |       1     | 0.20339176E-02 | 0.22368687E+03 |   36.561
 BASOPT|       42     |       1     | 0.10250383E-02 | 0.31628896E+03 |    9.671
 BASOPT| -----------------------------------------------------------------------
 BASOPT| Total residuum value: -.34556604E+04

 BASOPT| Information at iteration number:    1300
 BASOPT| Training set | Combination | Rho difference | Condition num. | Time
 BASOPT| -----------------------------------------------------------------------
 BASOPT|        1     |       1     | 0.97046493E-03 | 0.34944535E+03 |   81.260
 BASOPT|        2     |       1     | 0.25360788E-02 | 0.60662071E+03 |   25.371
 BASOPT|        3     |       1     | 0.26832122E-02 | 0.12006786E+04 |  241.676
 BASOPT|        4     |       1     | 0.25532181E-02 | 0.45802103E+03 |   80.986
 BASOPT|        5     |       1     | 0.19292420E-02 | 0.24502576E+03 |   18.269
 BASOPT|        6     |       1     | 0.20529760E-02 | 0.55150279E+03 |   54.000
 BASOPT|        7     |       1     | 0.23661764E-02 | 0.34678238E+03 |   81.644
 BASOPT|        8     |       1     | 0.53393779E-03 | 0.68970537E+02 |   14.141
 BASOPT|        9     |       1     | 0.10954531E-02 | 0.59535172E+03 |   29.283
 BASOPT|       10     |       1     | 0.11284604E-02 | 0.49139354E+03 |   53.968
 BASOPT|       11     |       1     | 0.14620514E-02 | 0.42173171E+03 |  112.702
 BASOPT|       12     |       1     | 0.34194330E-02 | 0.33353532E+04 |  240.338
 BASOPT|       13     |       1     | 0.25821949E-02 | 0.53828585E+03 |  177.034
 BASOPT|       14     |       1     | 0.31845868E-02 | 0.43214068E+04 |  325.404
 BASOPT|       15     |       1     | 0.29965915E-02 | 0.46632666E+03 |   41.078
 BASOPT|       16     |       1     | 0.18423224E-02 | 0.32884644E+03 |   37.979
 BASOPT|       17     |       1     | 0.21465170E-02 | 0.39896569E+03 |   37.955
 BASOPT|       18     |       1     | 0.27477321E-02 | 0.61569085E+03 |   67.448
 BASOPT|       19     |       1     | 0.16526472E-02 | 0.64022029E+03 |   31.047
 BASOPT|       20     |       1     | 0.17593266E-02 | 0.44052923E+03 |   51.216
 BASOPT|       21     |       1     | 0.68822133E-03 | 0.81811531E+02 |   32.774
 BASOPT|       22     |       1     | 0.18400954E-02 | 0.30029925E+03 |    7.479
 BASOPT|       23     |       1     | 0.51556165E-03 | 0.18490062E+03 |    4.970
 BASOPT|       24     |       1     | 0.27222278E-02 | 0.10361784E+04 |   57.264
 BASOPT|       25     |       1     | 0.17097735E-02 | 0.38548309E+03 |   20.184
 BASOPT|       26     |       1     | 0.15515326E-02 | 0.32931314E+03 |   15.664
 BASOPT|       27     |       1     | 0.11313076E-02 | 0.99298117E+02 |    8.430
 BASOPT|       28     |       1     | 0.11272802E-02 | 0.78235240E+02 |    4.424
 BASOPT|       29     |       1     | 0.12855317E-02 | 0.55541120E+03 |   14.938
 BASOPT|       30     |       1     | 0.75922232E-03 | 0.87110433E+02 |    5.347
 BASOPT|       31     |       1     | 0.18479097E-02 | 0.69780966E+03 |   14.329
 BASOPT|       32     |       1     | 0.21272160E-02 | 0.11345574E+04 |   17.380
 BASOPT|       33     |       1     | 0.23938386E-02 | 0.16342196E+04 |   29.537
 BASOPT|       34     |       1     | 0.19082205E-02 | 0.64986574E+03 |    9.728
 BASOPT|       35     |       1     | 0.19424759E-02 | 0.10538989E+04 |   14.781
 BASOPT|       36     |       1     | 0.24607520E-02 | 0.90115411E+03 |   40.175
 BASOPT|       37     |       1     | 0.15602243E-02 | 0.10235704E+04 |    4.597
 BASOPT|       38     |       1     | 0.21081188E-02 | 0.96467973E+03 |   17.137
 BASOPT|       39     |       1     | 0.16173946E-02 | 0.11080208E+04 |   18.357
 BASOPT|       40     |       1     | 0.15190537E-02 | 0.11227574E+03 |   15.974
 BASOPT|       41     |       1     | 0.19913531E-02 | 0.21530700E+03 |   39.605
 BASOPT|       42     |       1     | 0.10525607E-02 | 0.31923029E+03 |   10.476
 BASOPT| -----------------------------------------------------------------------
 BASOPT| Total residuum value: -.34556644E+04

 BASOPT| Information at iteration number:    1400
 BASOPT| Training set | Combination | Rho difference | Condition num. | Time
 BASOPT| -----------------------------------------------------------------------
 BASOPT|        1     |       1     | 0.94080826E-03 | 0.34536445E+03 |   87.555
 BASOPT|        2     |       1     | 0.25615883E-02 | 0.60794578E+03 |   27.338
 BASOPT|        3     |       1     | 0.26021199E-02 | 0.11974609E+04 |  260.261
 BASOPT|        4     |       1     | 0.24901163E-02 | 0.45755307E+03 |   87.215
 BASOPT|        5     |       1     | 0.20270357E-02 | 0.23943596E+03 |   19.674
 BASOPT|        6     |       1     | 0.20231685E-02 | 0.53496906E+03 |   58.149
 BASOPT|        7     |       1     | 0.22595064E-02 | 0.34074886E+03 |   87.919
 BASOPT|        8     |       1     | 0.51084571E-03 | 0.67686477E+02 |   15.228
 BASOPT|        9     |       1     | 0.10961453E-02 | 0.59827252E+03 |   31.534
 BASOPT|       10     |       1     | 0.11210706E-02 | 0.49294464E+03 |   58.116
 BASOPT|       11     |       1     | 0.14783938E-02 | 0.42231957E+03 |  121.354
 BASOPT|       12     |       1     | 0.34954474E-02 | 0.33386790E+04 |  258.810
 BASOPT|       13     |       1     | 0.26282484E-02 | 0.54376632E+03 |  190.640
 BASOPT|       14     |       1     | 0.32740414E-02 | 0.43270767E+04 |  350.413
 BASOPT|       15     |       1     | 0.30505214E-02 | 0.45578755E+03 |   44.236
 BASOPT|       16     |       1     | 0.18543361E-02 | 0.32352127E+03 |   40.896
 BASOPT|       17     |       1     | 0.21695033E-02 | 0.39274462E+03 |   40.871
 BASOPT|       18     |       1     | 0.27343134E-02 | 0.61995679E+03 |   72.634
 BASOPT|       19     |       1     | 0.16138337E-02 | 0.63316782E+03 |   33.431
 BASOPT|       20     |       1     | 0.17663997E-02 | 0.42937824E+03 |   55.166
 BASOPT|       21     |       1     | 0.68497953E-03 | 0.79283178E+02 |   35.293
 BASOPT|       22     |       1     | 0.18524171E-02 | 0.29239165E+03 |    8.053
 BASOPT|       23     |       1     | 0.52239575E-03 | 0.18489140E+03 |    5.352
 BASOPT|       24     |       1     | 0.27562995E-02 | 0.10007360E+04 |   61.666
 BASOPT|       25     |       1     | 0.17136410E-02 | 0.37394366E+03 |   21.735
 BASOPT|       26     |       1     | 0.15618360E-02 | 0.32344984E+03 |   16.868
 BASOPT|       27     |       1     | 0.11255646E-02 | 0.97016646E+02 |    9.122
 BASOPT|       28     |       1     | 0.10303941E-02 | 0.74594568E+02 |    4.784
 BASOPT|       29     |       1     | 0.13025211E-02 | 0.54955979E+03 |   16.085
 BASOPT|       30     |       1     | 0.75470152E-03 | 0.84494464E+02 |    5.758
 BASOPT|       31     |       1     | 0.18493248E-02 | 0.69396738E+03 |   15.433
 BASOPT|       32     |       1     | 0.21198350E-02 | 0.10892232E+04 |   18.716
 BASOPT|       33     |       1     | 0.24194636E-02 | 0.15957488E+04 |   31.808
 BASOPT|       34     |       1     | 0.18945564E-02 | 0.62601911E+03 |   10.475
 BASOPT|       35     |       1     | 0.19075491E-02 | 0.10401186E+04 |   15.925
 BASOPT|       36     |       1     | 0.23259874E-02 | 0.88966181E+03 |   43.261
 BASOPT|       37     |       1     | 0.16250118E-02 | 0.10127309E+04 |    4.949
 BASOPT|       38     |       1     | 0.21221233E-02 | 0.96068223E+03 |   18.449
 BASOPT|       39     |       1     | 0.16326956E-02 | 0.11052690E+04 |   19.767
 BASOPT|       40     |       1     | 0.14174033E-02 | 0.10626189E+03 |   17.177
 BASOPT|       41     |       1     | 0.19389926E-02 | 0.21051143E+03 |   42.649
 BASOPT|       42     |       1     | 0.10630295E-02 | 0.31755056E+03 |   11.280
 BASOPT| -----------------------------------------------------------------------
 BASOPT| Total residuum value: -.34556887E+04

 BASOPT| Information at iteration number:    1500
 BASOPT| Training set | Combination | Rho difference | Condition num. | Time
 BASOPT| -----------------------------------------------------------------------
 BASOPT|        1     |       1     | 0.91385294E-03 | 0.35375100E+03 |   93.842
 BASOPT|        2     |       1     | 0.24929001E-02 | 0.62656253E+03 |   29.301
 BASOPT|        3     |       1     | 0.26842282E-02 | 0.12176259E+04 |  278.845
 BASOPT|        4     |       1     | 0.25103084E-02 | 0.47411697E+03 |   93.444
 BASOPT|        5     |       1     | 0.19836387E-02 | 0.24425661E+03 |   21.082
 BASOPT|        6     |       1     | 0.20163669E-02 | 0.54340136E+03 |   62.297
 BASOPT|        7     |       1     | 0.23076086E-02 | 0.34300561E+03 |   94.195
 BASOPT|        8     |       1     | 0.50479798E-03 | 0.66552064E+02 |   16.316
 BASOPT|        9     |       1     | 0.10968007E-02 | 0.59871190E+03 |   33.786
 BASOPT|       10     |       1     | 0.11251745E-02 | 0.49221576E+03 |   62.266
 BASOPT|       11     |       1     | 0.14671932E-02 | 0.41948679E+03 |  130.010
 BASOPT|       12     |       1     | 0.34974300E-02 | 0.34696561E+04 |  277.278
 BASOPT|       13     |       1     | 0.26404026E-02 | 0.54461899E+03 |  204.245
 BASOPT|       14     |       1     | 0.32257782E-02 | 0.44310177E+04 |  375.419
 BASOPT|       15     |       1     | 0.30334657E-02 | 0.48271594E+03 |   47.396
 BASOPT|       16     |       1     | 0.18319608E-02 | 0.33324875E+03 |   43.809
 BASOPT|       17     |       1     | 0.21239508E-02 | 0.39597433E+03 |   43.789
 BASOPT|       18     |       1     | 0.26710957E-02 | 0.62147804E+03 |   77.818
 BASOPT|       19     |       1     | 0.15922474E-02 | 0.65292287E+03 |   35.817
 BASOPT|       20     |       1     | 0.17576178E-02 | 0.43085260E+03 |   59.115
 BASOPT|       21     |       1     | 0.68111722E-03 | 0.79224597E+02 |   37.813
 BASOPT|       22     |       1     | 0.18406766E-02 | 0.29844479E+03 |    8.627
 BASOPT|       23     |       1     | 0.53272706E-03 | 0.18574461E+03 |    5.733
 BASOPT|       24     |       1     | 0.26819571E-02 | 0.10150971E+04 |   66.069
 BASOPT|       25     |       1     | 0.17036364E-02 | 0.37905831E+03 |   23.286
 BASOPT|       26     |       1     | 0.15358747E-02 | 0.31896202E+03 |   18.072
 BASOPT|       27     |       1     | 0.11261411E-02 | 0.95303346E+02 |    9.815
 BASOPT|       28     |       1     | 0.10887017E-02 | 0.71867256E+02 |    5.144
 BASOPT|       29     |       1     | 0.13115573E-02 | 0.58108551E+03 |   17.232
 BASOPT|       30     |       1     | 0.74368757E-03 | 0.81823014E+02 |    6.169
 BASOPT|       31     |       1     | 0.19255062E-02 | 0.72278572E+03 |   16.537
 BASOPT|       32     |       1     | 0.21287342E-02 | 0.10355123E+04 |   20.052
 BASOPT|       33     |       1     | 0.24070444E-02 | 0.15578488E+04 |   34.079
 BASOPT|       34     |       1     | 0.19178681E-02 | 0.60166048E+03 |   11.222
 BASOPT|       35     |       1     | 0.19437008E-02 | 0.10571836E+04 |   17.070
 BASOPT|       36     |       1     | 0.22703543E-02 | 0.89672396E+03 |   46.347
 BASOPT|       37     |       1     | 0.17102435E-02 | 0.10407659E+04 |    5.302
 BASOPT|       38     |       1     | 0.24377353E-02 | 0.98963883E+03 |   19.758
 BASOPT|       39     |       1     | 0.16728377E-02 | 0.11358094E+04 |   21.178
 BASOPT|       40     |       1     | 0.13494881E-02 | 0.99371748E+02 |   18.379
 BASOPT|       41     |       1     | 0.19377103E-02 | 0.20646592E+03 |   45.693
 BASOPT|       42     |       1     | 0.10464657E-02 | 0.31775723E+03 |   12.085
 BASOPT| -----------------------------------------------------------------------
 BASOPT| Total residuum value: -.34556802E+04

 BASOPT| Information at iteration number:    1600
 BASOPT| Training set | Combination | Rho difference | Condition num. | Time
 BASOPT| -----------------------------------------------------------------------
 BASOPT|        1     |       1     | 0.92137033E-03 | 0.35165931E+03 |  100.141
 BASOPT|        2     |       1     | 0.24370975E-02 | 0.64390633E+03 |   31.271
 BASOPT|        3     |       1     | 0.25838841E-02 | 0.12429895E+04 |  297.428
 BASOPT|        4     |       1     | 0.24114139E-02 | 0.47902830E+03 |   99.670
 BASOPT|        5     |       1     | 0.19834069E-02 | 0.24676025E+03 |   22.490
 BASOPT|        6     |       1     | 0.19428903E-02 | 0.56928802E+03 |   66.446
 BASOPT|        7     |       1     | 0.22370742E-02 | 0.33985792E+03 |  100.471
 BASOPT|        8     |       1     | 0.50881553E-03 | 0.64966317E+02 |   17.406
 BASOPT|        9     |       1     | 0.10867529E-02 | 0.62638126E+03 |   36.037
 BASOPT|       10     |       1     | 0.11255314E-02 | 0.50616731E+03 |   66.415
 BASOPT|       11     |       1     | 0.14359388E-02 | 0.42415719E+03 |  138.669
 BASOPT|       12     |       1     | 0.33001244E-02 | 0.34798104E+04 |  295.744
 BASOPT|       13     |       1     | 0.25882823E-02 | 0.56094566E+03 |  217.851
 BASOPT|       14     |       1     | 0.30642533E-02 | 0.44101489E+04 |  400.426
 BASOPT|       15     |       1     | 0.29764146E-02 | 0.51026663E+03 |   50.551
 BASOPT|       16     |       1     | 0.18015533E-02 | 0.34790848E+03 |   46.722
 BASOPT|       17     |       1     | 0.21076573E-02 | 0.40770107E+03 |   46.706
 BASOPT|       18     |       1     | 0.25935436E-02 | 0.64620572E+03 |   83.002
 BASOPT|       19     |       1     | 0.15702541E-02 | 0.67229931E+03 |   38.201
 BASOPT|       20     |       1     | 0.17602014E-02 | 0.43614949E+03 |   63.064
 BASOPT|       21     |       1     | 0.68665820E-03 | 0.79393535E+02 |   40.334
 BASOPT|       22     |       1     | 0.17694714E-02 | 0.31307340E+03 |    9.202
 BASOPT|       23     |       1     | 0.52251512E-03 | 0.18855316E+03 |    6.115
 BASOPT|       24     |       1     | 0.26314860E-02 | 0.10335248E+04 |   70.471
 BASOPT|       25     |       1     | 0.17035303E-02 | 0.39286243E+03 |   24.837
 BASOPT|       26     |       1     | 0.15407912E-02 | 0.31600626E+03 |   19.276
 BASOPT|       27     |       1     | 0.11422638E-02 | 0.95411077E+02 |   10.508
 BASOPT|       28     |       1     | 0.10020177E-02 | 0.68578007E+02 |    5.504
 BASOPT|       29     |       1     | 0.12564793E-02 | 0.60787977E+03 |   18.378
 BASOPT|       30     |       1     | 0.73983853E-03 | 0.80256791E+02 |    6.579
 BASOPT|       31     |       1     | 0.18386571E-02 | 0.74981581E+03 |   17.643
 BASOPT|       32     |       1     | 0.21013673E-02 | 0.10520751E+04 |   21.387
 BASOPT|       33     |       1     | 0.23553651E-02 | 0.15936031E+04 |   36.346
 BASOPT|       34     |       1     | 0.18820785E-02 | 0.61139352E+03 |   11.967
 BASOPT|       35     |       1     | 0.18877839E-02 | 0.10704716E+04 |   18.215
 BASOPT|       36     |       1     | 0.22686013E-02 | 0.89717580E+03 |   49.433
 BASOPT|       37     |       1     | 0.16309689E-02 | 0.10729690E+04 |    5.657
 BASOPT|       38     |       1     | 0.21380378E-02 | 0.10126978E+04 |   21.068
 BASOPT|       39     |       1     | 0.16089548E-02 | 0.11754473E+04 |   22.588
 BASOPT|       40     |       1     | 0.13720850E-02 | 0.98768612E+02 |   19.583
 BASOPT|       41     |       1     | 0.18896072E-02 | 0.20020032E+03 |   48.736
 BASOPT|       42     |       1     | 0.10306077E-02 | 0.32085523E+03 |   12.889
 BASOPT| -----------------------------------------------------------------------
 BASOPT| Total residuum value: -.34557197E+04

 BASOPT| Information at iteration number:    1700
 BASOPT| Training set | Combination | Rho difference | Condition num. | Time
 BASOPT| -----------------------------------------------------------------------
 BASOPT|        1     |       1     | 0.91613875E-03 | 0.35816365E+03 |  106.442
 BASOPT|        2     |       1     | 0.24734104E-02 | 0.65945648E+03 |   33.243
 BASOPT|        3     |       1     | 0.25643796E-02 | 0.12641715E+04 |  316.006
 BASOPT|        4     |       1     | 0.24173979E-02 | 0.49242608E+03 |  105.896
 BASOPT|        5     |       1     | 0.19792997E-02 | 0.24602138E+03 |   23.894
 BASOPT|        6     |       1     | 0.19358934E-02 | 0.55633072E+03 |   70.597
 BASOPT|        7     |       1     | 0.21943528E-02 | 0.34248686E+03 |  106.746
 BASOPT|        8     |       1     | 0.50510593E-03 | 0.65451168E+02 |   18.497
 BASOPT|        9     |       1     | 0.10797443E-02 | 0.55042580E+03 |   38.289
 BASOPT|       10     |       1     | 0.11392080E-02 | 0.45643865E+03 |   70.563
 BASOPT|       11     |       1     | 0.14709265E-02 | 0.39219003E+03 |  147.323
 BASOPT|       12     |       1     | 0.33539289E-02 | 0.36003309E+04 |  314.211
 BASOPT|       13     |       1     | 0.26160396E-02 | 0.50931730E+03 |  231.456
 BASOPT|       14     |       1     | 0.31053424E-02 | 0.45365074E+04 |  425.431
 BASOPT|       15     |       1     | 0.29555529E-02 | 0.51692284E+03 |   53.707
 BASOPT|       16     |       1     | 0.18139771E-02 | 0.33650482E+03 |   49.633
 BASOPT|       17     |       1     | 0.21371259E-02 | 0.38981617E+03 |   49.626
 BASOPT|       18     |       1     | 0.25707902E-02 | 0.57826655E+03 |   88.186
 BASOPT|       19     |       1     | 0.15591279E-02 | 0.64525590E+03 |   40.585
 BASOPT|       20     |       1     | 0.17748114E-02 | 0.42574431E+03 |   67.014
 BASOPT|       21     |       1     | 0.71667055E-03 | 0.79495064E+02 |   42.853
 BASOPT|       22     |       1     | 0.18092568E-02 | 0.30733509E+03 |    9.776
 BASOPT|       23     |       1     | 0.50879770E-03 | 0.18984080E+03 |    6.496
 BASOPT|       24     |       1     | 0.26701369E-02 | 0.10464320E+04 |   74.875
 BASOPT|       25     |       1     | 0.16994210E-02 | 0.38294201E+03 |   26.387
 BASOPT|       26     |       1     | 0.15566577E-02 | 0.31533977E+03 |   20.481
 BASOPT|       27     |       1     | 0.11296804E-02 | 0.94660286E+02 |   11.201
 BASOPT|       28     |       1     | 0.97230430E-03 | 0.68344003E+02 |    5.864
 BASOPT|       29     |       1     | 0.12711144E-02 | 0.58774047E+03 |   19.523
 BASOPT|       30     |       1     | 0.74013497E-03 | 0.79926507E+02 |    6.990
 BASOPT|       31     |       1     | 0.18872062E-02 | 0.71457388E+03 |   18.746
 BASOPT|       32     |       1     | 0.21056033E-02 | 0.10377782E+04 |   22.722
 BASOPT|       33     |       1     | 0.24027732E-02 | 0.15775207E+04 |   38.614
 BASOPT|       34     |       1     | 0.18809921E-02 | 0.60419892E+03 |   12.713
 BASOPT|       35     |       1     | 0.18768948E-02 | 0.10737046E+04 |   19.360
 BASOPT|       36     |       1     | 0.21934756E-02 | 0.89852630E+03 |   52.520
 BASOPT|       37     |       1     | 0.17130539E-02 | 0.10832726E+04 |    6.014
 BASOPT|       38     |       1     | 0.22279684E-02 | 0.10243371E+04 |   22.375
 BASOPT|       39     |       1     | 0.15997367E-02 | 0.11863026E+04 |   23.999
 BASOPT|       40     |       1     | 0.13080503E-02 | 0.97491550E+02 |   20.784
 BASOPT|       41     |       1     | 0.18726728E-02 | 0.20032403E+03 |   51.779
 BASOPT|       42     |       1     | 0.10288713E-02 | 0.32285317E+03 |   13.694
 BASOPT| -----------------------------------------------------------------------
 BASOPT| Total residuum value: -.34557009E+04

 BASOPT| Information at iteration number:    1800
 BASOPT| Training set | Combination | Rho difference | Condition num. | Time
 BASOPT| -----------------------------------------------------------------------
 BASOPT|        1     |       1     | 0.90764949E-03 | 0.36228431E+03 |  112.696
 BASOPT|        2     |       1     | 0.24018859E-02 | 0.67489954E+03 |   35.197
 BASOPT|        3     |       1     | 0.25432844E-02 | 0.12916590E+04 |  334.585
 BASOPT|        4     |       1     | 0.24008487E-02 | 0.50157390E+03 |  112.130
 BASOPT|        5     |       1     | 0.20498474E-02 | 0.25172607E+03 |   25.298
 BASOPT|        6     |       1     | 0.19234459E-02 | 0.54044982E+03 |   74.749
 BASOPT|        7     |       1     | 0.22022071E-02 | 0.34486438E+03 |  113.022
 BASOPT|        8     |       1     | 0.49929279E-03 | 0.64916403E+02 |   19.586
 BASOPT|        9     |       1     | 0.10524939E-02 | 0.57637143E+03 |   40.541
 BASOPT|       10     |       1     | 0.11160837E-02 | 0.47452161E+03 |   74.712
 BASOPT|       11     |       1     | 0.14757270E-02 | 0.40479173E+03 |  155.976
 BASOPT|       12     |       1     | 0.33507803E-02 | 0.35881726E+04 |  332.682
 BASOPT|       13     |       1     | 0.25962833E-02 | 0.52949200E+03 |  245.054
 BASOPT|       14     |       1     | 0.31179355E-02 | 0.45564007E+04 |  450.447
 BASOPT|       15     |       1     | 0.31070509E-02 | 0.51559190E+03 |   56.865
 BASOPT|       16     |       1     | 0.18674283E-02 | 0.34053055E+03 |   52.545
 BASOPT|       17     |       1     | 0.21391087E-02 | 0.38901270E+03 |   52.544
 BASOPT|       18     |       1     | 0.25831481E-02 | 0.60303717E+03 |   93.369
 BASOPT|       19     |       1     | 0.15559232E-02 | 0.66152039E+03 |   42.971
 BASOPT|       20     |       1     | 0.17966277E-02 | 0.41842013E+03 |   70.965
 BASOPT|       21     |       1     | 0.72157237E-03 | 0.78481672E+02 |   45.372
 BASOPT|       22     |       1     | 0.17617332E-02 | 0.29906395E+03 |   10.351
 BASOPT|       23     |       1     | 0.55702940E-03 | 0.19034781E+03 |    6.877
 BASOPT|       24     |       1     | 0.26569033E-02 | 0.99406885E+03 |   79.278
 BASOPT|       25     |       1     | 0.17162331E-02 | 0.37364877E+03 |   27.938
 BASOPT|       26     |       1     | 0.15499291E-02 | 0.30611284E+03 |   21.685
 BASOPT|       27     |       1     | 0.11488383E-02 | 0.94313581E+02 |   11.894
 BASOPT|       28     |       1     | 0.87852003E-03 | 0.65172012E+02 |    6.224
 BASOPT|       29     |       1     | 0.12464446E-02 | 0.59870606E+03 |   20.669
 BASOPT|       30     |       1     | 0.75696730E-03 | 0.78186198E+02 |    7.401
 BASOPT|       31     |       1     | 0.18202306E-02 | 0.73137364E+03 |   19.850
 BASOPT|       32     |       1     | 0.21011944E-02 | 0.10052724E+04 |   24.058
 BASOPT|       33     |       1     | 0.23695129E-02 | 0.15018598E+04 |   40.883
 BASOPT|       34     |       1     | 0.18675386E-02 | 0.59839869E+03 |   13.460
 BASOPT|       35     |       1     | 0.18612207E-02 | 0.11158272E+04 |   20.505
 BASOPT|       36     |       1     | 0.22255892E-02 | 0.92342365E+03 |   55.606
 BASOPT|       37     |       1     | 0.16317216E-02 | 0.11381868E+04 |    6.373
 BASOPT|       38     |       1     | 0.21475147E-02 | 0.10619742E+04 |   23.684
 BASOPT|       39     |       1     | 0.16815261E-02 | 0.12242536E+04 |   25.409
 BASOPT|       40     |       1     | 0.13378390E-02 | 0.97568639E+02 |   21.988
 BASOPT|       41     |       1     | 0.18751293E-02 | 0.19768233E+03 |   54.822
 BASOPT|       42     |       1     | 0.10536439E-02 | 0.31643144E+03 |   14.498
 BASOPT| -----------------------------------------------------------------------
 BASOPT| Total residuum value: -.34557244E+04

 BASOPT| Information at iteration number:    1900
 BASOPT| Training set | Combination | Rho difference | Condition num. | Time
 BASOPT| -----------------------------------------------------------------------
 BASOPT|        1     |       1     | 0.91001997E-03 | 0.33839115E+03 |  118.985
 BASOPT|        2     |       1     | 0.24217708E-02 | 0.63099914E+03 |   37.163
 BASOPT|        3     |       1     | 0.26285104E-02 | 0.12162554E+04 |  353.166
 BASOPT|        4     |       1     | 0.24115890E-02 | 0.47074209E+03 |  118.356
 BASOPT|        5     |       1     | 0.19670709E-02 | 0.25146025E+03 |   26.702
 BASOPT|        6     |       1     | 0.19329071E-02 | 0.57286870E+03 |   78.901
 BASOPT|        7     |       1     | 0.22413211E-02 | 0.33716321E+03 |  119.297
 BASOPT|        8     |       1     | 0.49749470E-03 | 0.65077612E+02 |   20.674
 BASOPT|        9     |       1     | 0.10460520E-02 | 0.71093786E+03 |   42.793
 BASOPT|       10     |       1     | 0.11303391E-02 | 0.55774656E+03 |   78.860
 BASOPT|       11     |       1     | 0.14781565E-02 | 0.45261721E+03 |  164.631
 BASOPT|       12     |       1     | 0.33840897E-02 | 0.34634986E+04 |  351.151
 BASOPT|       13     |       1     | 0.25930999E-02 | 0.62397393E+03 |  258.662
[...]
 BASOPT|       38     |       1     | 0.19465204E-02 | 0.90362481E+03 |  134.805
 BASOPT|       39     |       1     | 0.15279407E-02 | 0.96951945E+03 |  145.294
 BASOPT|       40     |       1     | 0.10269120E-02 | 0.97162501E+02 |  122.815
 BASOPT|       41     |       1     | 0.15956031E-02 | 0.16597396E+03 |  313.559
 BASOPT|       42     |       1     | 0.89802986E-03 | 0.30523758E+03 |   83.122
 BASOPT| -----------------------------------------------------------------------
 BASOPT| Total residuum value: -.34561478E+04


 -------------------------------------------------------------------------------
 -                                                                             -
 -                                DBCSR STATISTICS                             -
 -                                                                             -
 -------------------------------------------------------------------------------
 COUNTER                                    TOTAL       BLAS       SMM       ACC
 flops    52 x    52 x     3                16224       0.0%    100.0%      0.0%
 flops    52 x    68 x     3                21216       0.0%    100.0%      0.0%
 flops    68 x    68 x     1                27744       0.0%    100.0%      0.0%
 flops    52 x    68 x     5                35360       0.0%    100.0%      0.0%
 flops    68 x    52 x     5                35360       0.0%    100.0%      0.0%
 flops    68 x    52 x     3                42432       0.0%    100.0%      0.0%
 flops   116 x    52 x     5                60320       0.0%    100.0%      0.0%
 flops    52 x    52 x     4                64896       0.0%    100.0%      0.0%
 flops    52 x   116 x     6                72384       0.0%    100.0%      0.0%
 flops   116 x    52 x     6                72384       0.0%    100.0%      0.0%
 flops   116 x    52 x     7                84448       0.0%    100.0%      0.0%
 flops    52 x    68 x     4                84864       0.0%    100.0%      0.0%
 flops    68 x    52 x     4                84864       0.0%    100.0%      0.0%
 flops   116 x    52 x     8                96512       0.0%    100.0%      0.0%
 flops   116 x   116 x     4               107648       0.0%    100.0%      0.0%
 flops   116 x    52 x     9               108576       0.0%    100.0%      0.0%
 flops    52 x   116 x     9               108576       0.0%    100.0%      0.0%
 flops    52 x   116 x     5               120640       0.0%    100.0%      0.0%
 flops   116 x    52 x    10               120640       0.0%    100.0%      0.0%
 flops    52 x   116 x    10               120640       0.0%    100.0%      0.0%
 flops   116 x    68 x     4               126208       0.0%    100.0%      0.0%
 flops    68 x   116 x     4               126208       0.0%    100.0%      0.0%
 flops    68 x    52 x    10               141440       0.0%    100.0%      0.0%
 flops    52 x    68 x    10               141440       0.0%    100.0%      0.0%
 flops   116 x    68 x     9               141984       0.0%    100.0%      0.0%
 flops    68 x   116 x     9               141984       0.0%    100.0%      0.0%
 flops   116 x    52 x    12               144768       0.0%    100.0%      0.0%
 flops    52 x    52 x     5               162240       0.0%    100.0%      0.0%
 flops    68 x    68 x     3               166464       0.0%    100.0%      0.0%
 flops   116 x    68 x    12               189312       0.0%    100.0%      0.0%
 flops    68 x   116 x    12               189312       0.0%    100.0%      0.0%
 flops    52 x    68 x     9               190944       0.0%    100.0%      0.0%
 flops    68 x    68 x     5               231200       0.0%    100.0%      0.0%
 flops    68 x   116 x     5               236640       0.0%    100.0%      0.0%
 flops   116 x    68 x     5               236640       0.0%    100.0%      0.0%
 flops   116 x   116 x     9               242208       0.0%    100.0%      0.0%
 flops    68 x    52 x     9               254592       0.0%    100.0%      0.0%
 flops    52 x   116 x    12               289536       0.0%    100.0%      0.0%
 flops    52 x   116 x     8               289536       0.0%    100.0%      0.0%
 flops   116 x   116 x    12               322944       0.0%    100.0%      0.0%
 flops    68 x    68 x     9               332928       0.0%    100.0%      0.0%
 flops    52 x    52 x     6               356928       0.0%    100.0%      0.0%
 flops   116 x    52 x    16               386048       0.0%    100.0%      0.0%
 flops    52 x   116 x    16               386048       0.0%    100.0%      0.0%
 flops    68 x    52 x    12               424320       0.0%    100.0%      0.0%
 flops    52 x    68 x    12               424320       0.0%    100.0%      0.0%
 flops   116 x   116 x    16               430592       0.0%    100.0%      0.0%
 flops    52 x    52 x     9               438048       0.0%    100.0%      0.0%
 flops    68 x    68 x    12               443904       0.0%    100.0%      0.0%
 flops    68 x    52 x     6               466752       0.0%    100.0%      0.0%
 flops    52 x    52 x     7               492128       0.0%    100.0%      0.0%
 flops    68 x   116 x     8               504832       0.0%    100.0%      0.0%
 flops    52 x    68 x     6               509184       0.0%    100.0%      0.0%
 flops   116 x    68 x     6               567936       0.0%    100.0%      0.0%
 flops   116 x    68 x     8               631040       0.0%    100.0%      0.0%
 flops    68 x   116 x     6               662592       0.0%    100.0%      0.0%
 flops    52 x    68 x     7               693056       0.0%    100.0%      0.0%
 flops    68 x    52 x     7               693056       0.0%    100.0%      0.0%
 flops    52 x    52 x    13               703040       0.0%    100.0%      0.0%
 flops    52 x    52 x     8               735488       0.0%    100.0%      0.0%
 flops    68 x    68 x     4               739840       0.0%    100.0%      0.0%
 flops   116 x   116 x     7               753536       0.0%    100.0%      0.0%
 flops   116 x    68 x     7               773024       0.0%    100.0%      0.0%
 flops   116 x   116 x     5               807360       0.0%    100.0%      0.0%
 flops   116 x   116 x     6               807360       0.0%    100.0%      0.0%
 flops    52 x    68 x     8               848640       0.0%    100.0%      0.0%
 flops   116 x   116 x     8               861184       0.0%    100.0%      0.0%
 flops    52 x    52 x    16               865280       0.0%    100.0%      0.0%
 flops    68 x   116 x     7               993888       0.0%    100.0%      0.0%
 flops    68 x    52 x     8              1018368       0.0%    100.0%      0.0%
 flops    52 x    52 x    10              1027520       0.0%    100.0%      0.0%
 flops    52 x   116 x    15              1085760       0.0%    100.0%      0.0%
 flops    68 x    68 x    10              1202240       0.0%    100.0%      0.0%
 flops   116 x    52 x    15              1266720       0.0%    100.0%      0.0%
 flops   116 x    68 x    10              1419840       0.0%    100.0%      0.0%
 flops    68 x   116 x    10              1419840       0.0%    100.0%      0.0%
 flops    52 x    52 x    15              2028000       0.0%    100.0%      0.0%
 flops    68 x    68 x     8              2367488       0.0%    100.0%      0.0%
 flops    68 x    68 x     6              2441472       0.0%    100.0%      0.0%
 flops    68 x    52 x    15              2545920       0.0%    100.0%      0.0%
 flops    52 x    68 x    15              2652000       0.0%    100.0%      0.0%
 flops    52 x    52 x    12              2660736       0.0%    100.0%      0.0%
 flops   116 x   116 x    10              2960320       0.0%    100.0%      0.0%
 flops    68 x    68 x     7              4207840       0.0%    100.0%      0.0%
 flops   116 x    68 x    15              4732800       0.0%    100.0%      0.0%
 flops    68 x   116 x    15              4969440       0.0%    100.0%      0.0%
 flops    68 x    68 x    15              6381120       0.0%    100.0%      0.0%
 flops   116 x   116 x    15             10092000       0.0%    100.0%      0.0%
 flops inhomo. stacks                           0       0.0%      0.0%      0.0%
 flops total                        79.663104E+06       0.0%    100.0%      0.0%
 flops max/rank                     21.708480E+06       0.0%    100.0%      0.0%
 matmuls inhomo. stacks                         0       0.0%      0.0%      0.0%
 matmuls total                                776       0.0%    100.0%      0.0%
 number of processed stacks                   192       0.0%    100.0%      0.0%
 average stack size                                     0.0       4.0       0.0
 marketing flops                   139.048896E+06
 -------------------------------------------------------------------------------
 # multiplications                              2
 max memory usage/rank               3.838599E+09
 # max total images/rank                        1
 # max 3D layers                                1
 # MPI messages exchanged                       0
 -------------------------------------------------------------------------------
 -                                                                             -
 -                      DBCSR MESSAGE PASSING PERFORMANCE                      -
 -                                                                             -
 -------------------------------------------------------------------------------
 ROUTINE             CALLS      AVE VOLUME [Bytes]
 MP_Bcast               89                     12.
 MP_Allreduce          209                     24.
 MP_Alltoall       1239762                 233877.
 MP_ISend                8                    130.
 MP_IRecv                8                    130.
 -------------------------------------------------------------------------------

 -------------------------------------------------------------------------------
 -                                                                             -
 -                                GRID STATISTICS                              -
 -                                                                             -
 -------------------------------------------------------------------------------
 LP    KERNEL    OPERATION                                     COUNT     PERCENT
 0     general   collocate                                       215       0.10%
 0     ortho     integrate                                     13942       6.53%
 0     ortho     collocate                                     13942       6.53%
 1     ortho     integrate                                     15835       7.41%
 1     ortho     collocate                                     15835       7.41%
 2     ortho     integrate                                     20811       9.74%
 2     ortho     collocate                                     20811       9.74%
 3     ortho     integrate                                     26631      12.47%
 3     ortho     collocate                                     26631      12.47%
 4     ortho     integrate                                     14834       6.95%
 4     ortho     collocate                                     14834       6.95%
 5     ortho     integrate                                      7501       3.51%
 5     ortho     collocate                                      7501       3.51%
 6     ortho     integrate                                      4406       2.06%
 6     ortho     collocate                                      4406       2.06%
 7     ortho     integrate                                      1776       0.83%
 7     ortho     collocate                                      1776       0.83%
 8     ortho     integrate                                       944       0.44%
 8     ortho     collocate                                       944       0.44%
 -------------------------------------------------------------------------------

 MEMORY| Estimated peak process memory [MiB]                                4730

 -------------------------------------------------------------------------------
 -                                                                             -
 -                         MESSAGE PASSING PERFORMANCE                         -
 -                                                                             -
 -------------------------------------------------------------------------------

 ROUTINE             CALLS      AVE VOLUME [Bytes]
 MP_Bcast            10373                   2608.
 MP_Allreduce        93116                    304.
 MP_Sync             10331
 MP_comm_split           1
 -------------------------------------------------------------------------------


 -------------------------------------------------------------------------------
 -                                                                             -
 -                           R E F E R E N C E S                               -
 -                                                                             -
 -------------------------------------------------------------------------------
 
 CP2K version 8.0 (Development Version), the CP2K developers group (2020).
 CP2K is freely available from https://www.cp2k.org/ .

 Kuehne,Thomas D.; Iannuzzi,Marcella; Del Ben,Mauro;
 Rybkin,Vladimir V.; Seewald,Patrick; Stein,Frederick; Laino,Teodoro;
 Khaliullin,Rustam Z.; Schuett,Ole; Schiffmann,Florian; Golze,Dorothea;
 Wilhelm,Jan; Chulkov,Sergey; Bani-Hashemian,Mohammad Hossein;
 Weber,Valery; Borstnik,Urban; Taillefumier,Mathieu;
 Jakobovits,Alice Shoshana; Lazzaro,Alfio; Pabst,Hans; Mueller,Tiziano;
 Schade,Robert; Guidon,Manuel; Andermatt,Samuel; Holmberg,Nico;
 Schenter,Gregory K.; Hehn,Anna; Bussy,Augustin; Belleflamme,Fabian;
 Tabacchi,Gloria; Gloess,Andreas; Lass,Michael; Bethune,Iain;
 Mundy,Christopher J.; Plessl,Christian; Watkins,Matt;
 VandeVondele,Joost; Krack,Matthias; Hutter,Juerg. 
 The Journal of Chemical Physics, 152 (19), (2020). 
 CP2K: An electronic structure and molecular dynamics software package -
 Quickstep: Efficient and accurate electronic structure calculations.
 https://doi.org/10.1063/5.0007045

 Schuett, Ole; Messmer, Peter; Hutter, Juerg; VandeVondele, Joost. 
 Electronic Structure Calculations on Graphics Processing Units, John
 Wiley & Sons, Ltd, 173-190 (2016). 
 GPU-Accelerated Sparse Matrix-Matrix Multiplication for
 Linear Scaling Density Functional Theory.
 https://doi.org/10.1002/9781118670712.ch8

 Borstnik, U; VandeVondele, J; Weber, V; Hutter, J. 
 PARALLEL COMPUTING, 40 (5-6), 47-58 (2014). 
 Sparse matrix multiplication: The distributed block-compressed sparse
 row library.
 https://doi.org/10.1016/j.parco.2014.03.012

 Hutter, J; Iannuzzi, M; Schiffmann, F; VandeVondele, J. 
 WIREs Comput Mol Sci., 4 (1), 15-25 (2014). 
 CP2K: atomistic simulations of condensed matter systems.
 https://doi.org/10.1002/wcms.1159

 Marek, A; Blum, V; Johanni, R; Havu, V; Lang, B; Auckenthaler, T;
 Heinecke, A; Bungartz, H; Lederer, H. 
 Journal of Physics: Condensed Matter, 26 (21), (2014). 
 The ELPA library: scalable parallel eigenvalue solutions for
 electronic structure
 theory and computational science.
 https://doi.org/10.1088/0953-8984/26/21/213201

 Guidon, M; Hutter, J; VandeVondele, J. 
 JOURNAL OF CHEMICAL THEORY AND COMPUTATION, 6 (8), 2348-2364 (2010). 
 Auxiliary Density Matrix Methods for Hartree-Fock Exchange Calculations.
 https://doi.org/10.1021/ct1002225

 VandeVondele, J; Hutter, J. 
 JOURNAL OF CHEMICAL PHYSICS, 127 (11), 114105 (2007). 
 Gaussian basis sets for accurate calculations on molecular systems in
 gas and condensed phases.
 https://doi.org/10.1063/1.2770708

 Krack, M. 
 THEORETICAL CHEMISTRY ACCOUNTS, 114 (1-3), 145-152 (2005). 
 Pseudopotentials for H to Kr optimized for gradient-corrected
 exchange-correlation functionals.
 https://doi.org/10.1007/s00214-005-0655-y

 VandeVondele, J; Krack, M; Mohamed, F; Parrinello, M; Chassaing, T;
 Hutter, J. COMPUTER PHYSICS COMMUNICATIONS, 167 (2), 103-128 (2005). 
 QUICKSTEP: Fast and accurate density functional calculations using a
 mixed Gaussian and plane waves approach.
 https://doi.org/10.1016/j.cpc.2004.12.014

 Frigo, M; Johnson, SG. 
 PROCEEDINGS OF THE IEEE, 93 (2), 216-231 (2005). 
 The design and implementation of FFTW3.
 https://doi.org/10.1109/JPROC.2004.840301

 Martyna, GJ; Tuckerman, ME. 
 JOURNAL OF CHEMICAL PHYSICS, 110 (6), 2810-2821 (1999). 
 A reciprocal space based method for treating long range interactions in
 ab initio and force-field-based calculations in clusters.
 https://doi.org/10.1063/1.477923

 Hartwigsen, C; Goedecker, S; Hutter, J. 
 PHYSICAL REVIEW B, 58 (7), 3641-3662 (1998). 
 Relativistic separable dual-space Gaussian pseudopotentials from H to Rn.
 https://doi.org/10.1103/PhysRevB.58.3641

 Lippert, G; Hutter, J; Parrinello, M. 
 MOLECULAR PHYSICS, 92 (3), 477-487 (1997). 
 A hybrid Gaussian and plane wave density functional scheme.
 https://doi.org/10.1080/002689797170220

 Perdew, JP; Burke, K; Ernzerhof, M. 
 PHYSICAL REVIEW LETTERS, 77 (18), 3865-3868 (1996). 
 Generalized gradient approximation made simple.
 https://doi.org/10.1103/PhysRevLett.77.3865

 Goedecker, S; Teter, M; Hutter, J. 
 PHYSICAL REVIEW B, 54 (3), 1703-1710 (1996). 
 Separable dual-space Gaussian pseudopotentials.
 https://doi.org/10.1103/PhysRevB.54.1703


 -------------------------------------------------------------------------------
 -                                                                             -
 -                                T I M I N G                                  -
 -                                                                             -
 -------------------------------------------------------------------------------
 SUBROUTINE                       CALLS  ASD         SELF TIME        TOTAL TIME
                                MAXIMUM       AVERAGE  MAXIMUM  AVERAGE  MAXIMUM
 CP2K                                 1  1.0    0.002    0.008 4068.910 4068.962
 run_optimize_basis                   1  2.0    0.002    0.003 4068.883 4068.941
 driver_para_opt_basis                1  3.0    0.000    0.000 4068.872 4068.930
 driver_optimization_para_low         1  4.0    0.112    0.197 4068.872 4068.929
 compute_residuum_vectors         10331  5.0    1.125    1.883 4000.273 4019.836
 mp_sum_dv                        51656  5.8 3270.013 3982.963 3270.013 3982.963
 cp_gemm                         247944  7.2    0.342    0.662  525.510 3141.374
 cp_gemm_fm_gemm                 247944  8.2    0.209    0.443  525.168 3140.712
 cp_fm_gemm                      247944  9.2  524.959 3140.270  524.959 3140.270
 admm_fit_mo_coeffs               20662  6.0    0.052    0.135  205.278 1112.741
 fit_mo_coeffs                    20662  7.0    0.169    0.278  162.979  874.456
 copy_dbcsr_to_fm                103312  6.8    1.089    2.282   70.388  323.047
 purify_mo_diag                   20662  7.0    0.217    0.436   42.247  238.150
 build_overlap_matrix_low         41332  6.0   54.596  224.378   55.787  227.175
 cp_fm_upper_to_full              61990  7.3   43.250  202.665   43.250  202.665
 dbcsr_complete_redistribute     103314  7.8   24.791  117.933   42.377  197.398
 -------------------------------------------------------------------------------

 The number of warnings for this run is : 0
 
 -------------------------------------------------------------------------------
  **** **** ******  **  PROGRAM ENDED AT                 2020-12-01 18:00:34.663
 ***** ** ***  *** **   PROGRAM RAN ON                                   tcopt10
 **    ****   ******    PROGRAM RAN BY                                    hutter
 ***** **    ** ** **   PROGRAM PROCESS ID                                 14906
  **** **  *******  **  PROGRAM STOPPED IN /data/hutter/GITHUB/BASIS/MOLOPT/PBE0
                                           /hbcnof
