 DBCSR| CPU Multiplication driver                                           XSMM
 DBCSR| Multrec recursion limit                                              512
 DBCSR| Multiplication stack size                                           1000
 DBCSR| Maximum elements for images                                    UNLIMITED
 DBCSR| Multiplicative factor virtual images                                   1
 DBCSR| Use multiplication densification                                       T
 DBCSR| Multiplication size stacks                                             3
 DBCSR| Use memory pool for CPU allocation                                     F
 DBCSR| Number of 3D layers                                               SINGLE
 DBCSR| Use MPI memory allocation                                              F
 DBCSR| Use RMA algorithm                                                      F
 DBCSR| Use Communication thread                                               T
 DBCSR| Communication thread load                                             87
 DBCSR| MPI: My node id                                                        0
 DBCSR| MPI: Number of nodes                                                  36
 DBCSR| OMP: Current number of threads                                         1
 DBCSR| OMP: Max number of threads                                             1
 DBCSR| Split modifier for TAS multiplication algorithm                  1.0E+00


  **** **** ******  **  PROGRAM STARTED AT               2022-05-31 15:24:40.944
 ***** ** ***  *** **   PROGRAM STARTED ON                               tcopt10
 **    ****   ******    PROGRAM STARTED BY                                hutter
 ***** **    ** ** **   PROGRAM PROCESS ID                                  6983
  **** **  *******  **  PROGRAM STARTED IN /data/hutter/GITHUB/BASIS/scMOLOPT/PB
                                           E/Te

 CP2K| version string:                   CP2K version 10.0 (Development Version)
 CP2K| source code revision number:                                  git:d19b00a
 CP2K| cp2kflags: omp libint fftw3 libxc elpa parallel mpi3 scalapack cosma xsmm
 CP2K|             spglib sirius libvori libbqb
 CP2K| is freely available from                            https://www.cp2k.org/
 CP2K| Program compiled at                      Wed 18 May 2022 12:15:59 PM CEST
 CP2K| Program compiled on                                               tcopt10
 CP2K| Program compiled for                                                local
 CP2K| Data directory path                   /data/hutter/GITHUB/TDLRI/cp2k/data
 CP2K| Input file name                                               TeO-ref.inp

 GLOBAL| Force Environment number                                              1
 GLOBAL| Basis set file name                                        ../def2QZVPP
 GLOBAL| Potential file name                                        ../POTENTIAL
 GLOBAL| MM Potential file name                                     MM_POTENTIAL
 GLOBAL| Coordinate file name                                      __STD_INPUT__
 GLOBAL| Method name                                                        CP2K
 GLOBAL| Project name                                                   refTeOq6
 GLOBAL| Run type                                                         ENERGY
 GLOBAL| FFT library                                                       FFTW3
 GLOBAL| Diagonalization library                                            ELPA
 GLOBAL| Minimum number of eigenvectors for ELPA usage                        16
 GLOBAL| Orthonormality check for eigenvectors                          DISABLED
 GLOBAL| Matrix multiplication library                                     COSMA
 GLOBAL| All-to-all communication in single precision                          F
 GLOBAL| FFTs using library dependent lengths                                  F
 GLOBAL| Grid backend                                                       AUTO
 GLOBAL| Global print level                                                  LOW
 GLOBAL| MPI I/O enabled                                                       T
 GLOBAL| Total number of message passing processes                            36
 GLOBAL| Number of threads for this process                                    1
 GLOBAL| This output is from process                                           0
 GLOBAL| Stack size for threads created by OpenMP (OMP_STACKSIZE)        default
 GLOBAL| CPU model name                          AMD EPYC 7401 24-Core Processor
 GLOBAL| CPUID                                                              1002

 MEMORY| system memory details [Kb]
 MEMORY|                        rank 0           min           max       average
 MEMORY| MemTotal            263969132     263969132     263969132     263969132
 MEMORY| MemFree             237105024     237105024     237105024     237105024
 MEMORY| Buffers                  2836          2836          2836          2836
 MEMORY| Cached               20266512      20266512      20266512      20266512
 MEMORY| Slab                  1471780       1471780       1471780       1471780
 MEMORY| SReclaimable           875844        875844        875844        875844
 MEMORY| MemLikelyFree       258250216     258250216     258250216     258250216


 GENERATE|  Preliminary Number of Bonds generated:                             0
 GENERATE|  Achieved consistency in connectivity generation.

 *******************************************************************************
 *******************************************************************************
 **                                                                           **
 **     #####                         ##              ##                      **
 **    ##   ##            ##          ##              ##                      **
 **   ##     ##                       ##            ######                    **
 **   ##     ##  ##   ##  ##   #####  ##  ##   ####   ##    #####    #####    **
 **   ##     ##  ##   ##  ##  ##      ## ##   ##      ##   ##   ##  ##   ##   **
 **   ##  ## ##  ##   ##  ##  ##      ####     ###    ##   ######   ######    **
 **    ##  ###   ##   ##  ##  ##      ## ##      ##   ##   ##       ##        **
 **     #######   #####   ##   #####  ##  ##  ####    ##    #####   ##        **
 **           ##                                                    ##        **
 **                                                                           **
 **                                                ... make the atoms dance   **
 **                                                                           **
 **            Copyright (C) by CP2K developers group (2000-2022)             **
 **                      J. Chem. Phys. 152, 194103 (2020)                    **
 **                                                                           **
 *******************************************************************************


 TOTAL NUMBERS AND MAXIMUM NUMBERS

  Total number of            - Atomic kinds:                                   2
                             - Atoms:                                          2
                             - Shell sets:                                    39
                             - Shells:                                        39
                             - Primitive Cartesian functions:                 76
                             - Cartesian basis functions:                    176
                             - Spherical basis functions:                    139

  Maximum angular momentum of- Orbital basis functions:                        4
                             - Local part of the GTH pseudopotential:          4
                             - Non-local part of the GTH pseudopotential:      4


 SCF PARAMETERS         Density guess:                                   RESTART
                        --------------------------------------------------------
                        max_scf:                                              90
                        max_scf_history:                                       0
                        max_diis:                                              4
                        --------------------------------------------------------
                        eps_scf:                                        3.00E-07
                        eps_scf_history:                                0.00E+00
                        eps_diis:                                       1.00E-01
                        eps_eigval:                                     1.00E-05
                        --------------------------------------------------------
                        level_shift [a.u.]:                             0.000000
                        --------------------------------------------------------
                        Outer loop SCF in use 
                        No variables optimised in outer loop
                        eps_scf                                         3.00E-07
                        max_scf                                                1
                        No outer loop optimization
                        step_size                                       5.00E-01

 Number of electrons:                                                         32
 Number of occupied orbitals:                                                 16
 Number of molecular orbitals:                                                16

 Number of orbital functions:                                                139
 Number of independent orbital functions:                                    139

 Extrapolation method: initial_guess


 SCF WAVEFUNCTION OPTIMIZATION

  ----------------------------------- OT ---------------------------------------
  Minimizer      : CG                  : conjugate gradient
  Preconditioner : FULL_ALL            : diagonalization, state selective
  Precond_solver : DEFAULT
  Line search    : 3PNT                : 3 energies
  stepsize       :    0.10000000                  energy_gap     :    0.08000000
  eps_taylor     :   0.10000E-15                  max_taylor     :             4
  ----------------------------------- OT ---------------------------------------

  Step     Update method      Time    Convergence         Total energy    Change
  ------------------------------------------------------------------------------
     1 OT CG       0.80E-01    0.9     0.00000679      -329.8870787618 -3.30E+02
     2 OT LS       0.11E+00    0.7                     -329.8870787673
     3 OT LS       0.12E+00    0.7                     -329.8870787680
     4 OT CG       0.96E-01    1.0     0.00000780      -329.8870787680 -6.17E-09
     5 OT LS       0.13E+00    0.7                     -329.8870787700
     6 OT LS       0.57E-01    0.7                     -329.8870787646
     7 OT CG       0.45E-01    1.0     0.00000132      -329.8870787718 -3.84E-09
     8 OT LS       0.64E-01    0.7                     -329.8870787720
     9 OT LS       0.25E+00    0.7                     -329.8870787721
    10 OT CG       0.20E+00    1.0     0.00000123      -329.8870787727 -8.86E-10
    11 OT LS       0.28E+00    0.7                     -329.8870787734
    12 OT LS       0.11E+01    0.7                     -329.8870787737
    13 OT CG       0.91E+00    1.0     0.00000389      -329.8870787755 -2.76E-09
    14 OT LS       0.46E+00    0.7                     -329.8870786559
    15 OT LS       0.12E+00    0.7                     -329.8870787562
    16 OT CG       0.95E-01    1.0     0.00000632      -329.8870787782 -2.76E-09
    17 OT LS       0.13E+00    0.7                     -329.8870787847
    18 OT LS       0.20E+00    0.7                     -329.8870787861
    19 OT CG       0.16E+00    1.0     0.00001869      -329.8870787872 -8.91E-09
    20 OT LS       0.22E+00    0.7                     -329.8870788124
    21 OT LS       0.10E+00    0.7                     -329.8870787651
    22 OT CG       0.80E-01    1.0     0.00001637      -329.8870788265 -3.94E-08
    23 OT LS       0.11E+00    0.7                     -329.8870788714
    24 OT LS       0.45E+00    0.7                     -329.8870788876
    25 OT CG       0.36E+00    1.0     0.00002530      -329.8870789973 -1.71E-07
    26 OT LS       0.18E+00    0.7                     -329.8870780572
    27 OT LS       0.71E-01    0.7                     -329.8870789158
    28 OT CG       0.57E-01    1.0     0.00002462      -329.8870790593 -6.20E-08
    29 OT LS       0.79E-01    0.7                     -329.8870791216
    30 OT LS       0.16E+00    0.7                     -329.8870791389
    31 OT CG       0.13E+00    1.0     0.00002952      -329.8870791675 -1.08E-07
    32 OT LS       0.63E-01    0.7                     -329.8870789891
    33 OT LS       0.37E-01    0.7                     -329.8870791855
    34 OT CG       0.29E-01    1.0     0.00001074      -329.8870792040 -3.66E-08
    35 OT LS       0.41E-01    0.7                     -329.8870792108
    36 OT LS       0.14E+00    0.7                     -329.8870792130
    37 OT CG       0.11E+00    1.0     0.00000619      -329.8870792216 -1.76E-08
    38 OT LS       0.55E-01    0.7                     -329.8870792213
    39 OT LS       0.53E-01    0.7                     -329.8870792239
    40 OT CG       0.43E-01    1.0     0.00000476      -329.8870792239 -2.26E-09
    41 OT LS       0.60E-01    0.7                     -329.8870792256
    42 OT LS       0.11E+00    0.7                     -329.8870792261
    43 OT CG       0.87E-01    1.0     0.00000148      -329.8870792266 -2.74E-09
    44 OT LS       0.12E+00    0.7                     -329.8870792268
    45 OT LS       0.59E-01    0.7                     -329.8870792266
    46 OT CG       0.47E-01    1.0     0.00000128      -329.8870792268 -1.44E-10
    47 OT LS       0.66E-01    0.7                     -329.8870792269
    48 OT LS       0.10E+00    0.7                     -329.8870792270
    49 OT CG       0.83E-01    1.0     0.00000068      -329.8870792270 -1.90E-10
    50 OT LS       0.12E+00    0.7                     -329.8870792270
    51 OT LS       0.18E+00    0.7                     -329.8870792271
    52 OT CG       0.14E+00    1.0     0.00000119      -329.8870792271 -8.87E-11
    53 OT LS       0.20E+00    0.7                     -329.8870792271
    54 OT LS       0.82E-01    0.7                     -329.8870792269
    55 OT CG       0.66E-01    1.0     0.00000083      -329.8870792272 -1.27E-10
    56 OT LS       0.92E-01    0.7                     -329.8870792273
    57 OT LS       0.37E+00    0.7                     -329.8870792273
    58 OT CG       0.30E+00    1.0     0.00000203      -329.8870792275 -3.16E-10
    59 OT LS       0.15E+00    0.7                     -329.8870792256
    60 OT LS       0.91E-01    0.7                     -329.8870792278
    61 OT CG       0.73E-01    1.0     0.00000187      -329.8870792280 -4.71E-10
    62 OT LS       0.10E+00    0.7                     -329.8870792285
    63 OT LS       0.41E+00    0.7                     -329.8870792287
    64 OT CG       0.33E+00    1.0     0.00000347      -329.8870792303 -2.37E-09
    65 OT LS       0.16E+00    0.7                     -329.8870792157
    66 OT LS       0.71E-01    0.7                     -329.8870792295
    67 OT CG       0.57E-01    1.0     0.00000349      -329.8870792316 -1.23E-09
    68 OT LS       0.80E-01    0.7                     -329.8870792328
    69 OT LS       0.16E+00    0.7                     -329.8870792332
    70 OT CG       0.13E+00    1.0     0.00000632      -329.8870792338 -2.21E-09
    71 OT LS       0.65E-01    0.7                     -329.8870792310
    72 OT LS       0.53E-01    0.7                     -329.8870792360
    73 OT CG       0.42E-01    1.0     0.00000458      -329.8870792361 -2.34E-09
    74 OT LS       0.59E-01    0.7                     -329.8870792379
    75 OT LS       0.18E+00    0.7                     -329.8870792384
    76 OT CG       0.14E+00    1.0     0.00000380      -329.8870792403 -4.18E-09
    77 OT LS       0.71E-01    0.7                     -329.8870792400
    78 OT LS       0.67E-01    0.7                     -329.8870792414
    79 OT CG       0.53E-01    1.0     0.00000393      -329.8870792414 -1.08E-09
    80 OT LS       0.75E-01    0.7                     -329.8870792429
    81 OT LS       0.17E+00    0.7                     -329.8870792434
    82 OT CG       0.14E+00    1.0     0.00000273      -329.8870792444 -2.97E-09
    83 OT LS       0.19E+00    0.7                     -329.8870792444
    84 OT LS       0.71E-01    0.7                     -329.8870792432
    85 OT CG       0.57E-01    1.0     0.00000291      -329.8870792449 -5.85E-10
    86 OT LS       0.79E-01    0.7                     -329.8870792458
    87 OT LS       0.13E+00    0.7                     -329.8870792460
    88 OT CG       0.10E+00    1.0     0.00000177      -329.8870792461 -1.18E-09
    89 OT LS       0.14E+00    0.7                     -329.8870792465
    90 OT LS       0.11E+00    0.7                     -329.8870792465

  Leaving inner SCF loop after reaching    90 steps.


  Electronic density on regular grids:        -30.1605875968        1.8394124032
  Core density on regular grids:               32.0000000000        0.0000000000
  Hard and soft densities (Lebedev):          -35.1893404407      -33.3499275316
  Total Rho_soft + Rho1_hard - Rho1_soft      -32.0000005058
  Total charge density (r-space):              -0.0000005058
  Total Rho_soft + Rho0_soft (g-space):        -0.0000008091

  Overlap energy of the core charge distribution:               0.00000000000036
  Self energy of the core charge distribution:               -496.33915672845512
  Core Hamiltonian energy:                                     91.72938800908258
  Hartree energy:                                             226.18036756387437
  Exchange-correlation energy:                                -22.90199261348682

  GAPW| Exc from hard and soft atomic rho1:                    -4.69714478417374
  GAPW| local Eh = 1 center integrals:                       -123.85854069334067

  Total energy:                                              -329.88707924649907

  outer SCF iter =    1 RMS gradient =   0.18E-05 energy =       -329.8870792465

  ----------------------------------- OT ---------------------------------------
  Minimizer      : CG                  : conjugate gradient
  Preconditioner : FULL_ALL            : diagonalization, state selective
  Precond_solver : DEFAULT
  Line search    : 3PNT                : 3 energies
  stepsize       :    0.10000000                  energy_gap     :    0.08000000
  eps_taylor     :   0.10000E-15                  max_taylor     :             4
  ----------------------------------- OT ---------------------------------------

  Step     Update method      Time    Convergence         Total energy    Change
  ------------------------------------------------------------------------------
     1 OT CG       0.80E-01    1.6     0.00000247      -329.8870792465 -3.95E-10
     2 OT LS       0.40E-01    0.7                     -329.8870792463
     3 OT LS       0.34E-01    0.7                     -329.8870792467
     4 OT CG       0.28E-01    1.0     0.00000075      -329.8870792468 -2.33E-10
     5 OT LS       0.39E-01    0.7                     -329.8870792468
     6 OT LS       0.13E+00    0.7                     -329.8870792468
     7 OT CG       0.10E+00    1.0     0.00000034      -329.8870792468 -7.49E-11
     8 OT LS       0.14E+00    0.7                     -329.8870792468
     9 OT LS       0.35E+00    0.7                     -329.8870792469
    10 OT CG       0.28E+00    1.0     0.00000039      -329.8870792469 -3.88E-11
    11 OT LS       0.39E+00    0.7                     -329.8870792469
    12 OT LS       0.13E+01    0.7                     -329.8870792470
    13 OT CG       0.10E+01    1.0     0.00000104      -329.8870792471 -2.24E-10
    14 OT LS       0.14E+01    0.6                     -329.8870792490
    15 OT LS       0.18E+01    0.7                     -329.8870792493
    16 OT CG       0.15E+01    1.0     0.00000375      -329.8870792494 -2.31E-09
    17 OT LS       0.73E+00    0.7                     -329.8870790205
    18 OT LS       0.13E+00    0.7                     -329.8870792041
    19 OT CG       0.10E+00    1.0     0.00000596      -329.8870792513 -1.90E-09
    20 OT LS       0.14E+00    0.7                     -329.8870792575
    21 OT LS       0.26E+00    0.7                     -329.8870792592
    22 OT CG       0.21E+00    1.0     0.00000305      -329.8870792612 -9.93E-09
    23 OT LS       0.29E+00    0.7                     -329.8870792625
    24 OT LS       0.15E+00    0.7                     -329.8870792613
    25 OT CG       0.12E+00    1.0     0.00000294      -329.8870792627 -1.51E-09
    26 OT LS       0.59E-01    0.7                     -329.8870792619
    27 OT LS       0.43E-01    0.7                     -329.8870792631
    28 OT CG       0.35E-01    1.0     0.00000078      -329.8870792631 -4.15E-10
    29 OT LS       0.48E-01    0.7                     -329.8870792632
    30 OT LS       0.13E+00    0.7                     -329.8870792632
    31 OT CG       0.10E+00    1.0     0.00000017      -329.8870792632 -7.65E-11

  *** SCF run converged in    31 steps ***


  Electronic density on regular grids:        -30.1605838020        1.8394161980
  Core density on regular grids:               32.0000000000        0.0000000000
  Hard and soft densities (Lebedev):          -35.1893482120      -33.3499315086
  Total Rho_soft + Rho1_hard - Rho1_soft      -32.0000005055
  Total charge density (r-space):              -0.0000005055
  Total Rho_soft + Rho0_soft (g-space):        -0.0000008088

  Overlap energy of the core charge distribution:               0.00000000000036
  Self energy of the core charge distribution:               -496.33915672845512
  Core Hamiltonian energy:                                     91.72946886648526
  Hartree energy:                                             226.18028139887019
  Exchange-correlation energy:                                -22.90200202058939

  GAPW| Exc from hard and soft atomic rho1:                    -4.69714942179373
  GAPW| local Eh = 1 center integrals:                       -123.85852135774023

  Total energy:                                              -329.88707926322269

  outer SCF iter =    2 RMS gradient =   0.17E-06 energy =       -329.8870792632
  outer SCF loop converged in   2 iterations or  121 steps


 ENERGY| Total FORCE_EVAL ( QS ) energy [a.u.]:             -329.887079263222688

 -------------------------------------------------------------------------------
 -                                                                             -
 -                                DBCSR STATISTICS                             -
 -                                                                             -
 -------------------------------------------------------------------------------
 COUNTER                                    TOTAL       BLAS       SMM       ACC
 flops    16 x    16 x    16              3334144       0.0%    100.0%      0.0%
 flops    16 x    16 x    57              7179264       0.0%    100.0%      0.0%
 flops    16 x    16 x    82             10328064       0.0%    100.0%      0.0%
 flops    57 x    16 x    16             10710528       0.0%    100.0%      0.0%
 flops    57 x    57 x    16             12684096       0.0%    100.0%      0.0%
 flops    82 x    16 x    16             15408128       0.0%    100.0%      0.0%
 flops    57 x    82 x    16             18247296       0.0%    100.0%      0.0%
 flops    82 x    82 x    16             26250496       0.0%    100.0%      0.0%
 flops    57 x    16 x    57             27031680       0.0%    100.0%      0.0%
 flops    82 x    16 x    57             38887680       0.0%    100.0%      0.0%
 flops    57 x    16 x    82             38887680       0.0%    100.0%      0.0%
 flops    82 x    16 x    82             55943680       0.0%    100.0%      0.0%
 flops inhomo. stacks                           0       0.0%      0.0%      0.0%
 flops total                       264.892736E+06       0.0%    100.0%      0.0%
 flops max/rank                    157.331456E+06       0.0%    100.0%      0.0%
 matmuls inhomo. stacks                         0       0.0%      0.0%      0.0%
 matmuls total                               3039       0.0%    100.0%      0.0%
 number of processed stacks                  3039       0.0%    100.0%      0.0%
 average stack size                                     0.0       1.0       0.0
 marketing flops                   283.282048E+06
 -------------------------------------------------------------------------------
 # multiplications                           1404
 max memory usage/rank             582.787072E+06
 # max total images/rank                        1
 # max 3D layers                                1
 # MPI messages exchanged                  505440
 MPI messages size (bytes):
  total size                       334.284320E+06
  min size                           0.000000E+00
  max size                          53.792000E+03
  average size                     661.372925E+00
 MPI breakdown and total messages size (bytes):
             size <=      128              480705                        0
       128 < size <=     8192               12720                 61815680
      8192 < size <=    32768                8115                105319840
     32768 < size <=   131072                3900                167148800
    131072 < size <=  4194304                   0                        0
   4194304 < size <= 16777216                   0                        0
  16777216 < size                               0                        0
 -------------------------------------------------------------------------------
 -                                                                             -
 -                      DBCSR MESSAGE PASSING PERFORMANCE                      -
 -                                                                             -
 -------------------------------------------------------------------------------
 ROUTINE             CALLS      AVE VOLUME [Bytes]
 MP_Bcast               13                     12.
 MP_Allreduce         7119                      8.
 MP_Alltoall          3861                   2092.
 MP_ISend            33688                   1419.
 MP_IRecv            33688                    507.
 -------------------------------------------------------------------------------

 -------------------------------------------------------------------------------
 -                                                                             -
 -                                GRID STATISTICS                              -
 -                                                                             -
 -------------------------------------------------------------------------------
 LP    KERNEL             BACKEND                              COUNT     PERCENT
 2     collocate ortho    REF                                  42090      16.90%
 3     collocate ortho    REF                                  39284      15.77%
 1     collocate ortho    REF                                  28548      11.46%
 4     collocate ortho    REF                                  27694      11.12%
 5     collocate ortho    REF                                  15006       6.03%
 2     integrate ortho    REF                                  14145       5.68%
 3     integrate ortho    REF                                  13202       5.30%
 0     collocate ortho    REF                                  12566       5.05%
 1     integrate ortho    REF                                   9594       3.85%
 4     integrate ortho    REF                                   9307       3.74%
 2     collocate general  REF                                   8712       3.50%
 2     integrate general  REF                                   8712       3.50%
 6     collocate ortho    REF                                   5978       2.40%
 5     integrate ortho    REF                                   5043       2.02%
 0     integrate ortho    REF                                   4223       1.70%
 6     integrate ortho    REF                                   2009       0.81%
 7     collocate ortho    REF                                   1830       0.73%
 7     integrate ortho    REF                                    615       0.25%
 8     collocate ortho    REF                                    366       0.15%
 8     integrate ortho    REF                                    123       0.05%
 -------------------------------------------------------------------------------

 MEMORY| Estimated peak process memory [MiB]                                 556

 -------------------------------------------------------------------------------
 -                                                                             -
 -                         MESSAGE PASSING PERFORMANCE                         -
 -                                                                             -
 -------------------------------------------------------------------------------

 ROUTINE             CALLS      AVE VOLUME [Bytes]
 MP_Group                4
 MP_Bcast             1071                 312158.
 MP_Allreduce         3000                 886778.
 MP_Sync                16
 MP_Alltoall          1638                6541599.
 MP_ISendRecv        17115                 115968.
 MP_Wait             34530
 MP_comm_split           6
 MP_ISend            16200                 278784.
 MP_IRecv            16200                 278784.
 MP_Recv                35                   3336.
 -------------------------------------------------------------------------------


 -------------------------------------------------------------------------------
 -                                                                             -
 -                           R E F E R E N C E S                               -
 -                                                                             -
 -------------------------------------------------------------------------------
 
 CP2K version 10.0 (Development Version), the CP2K developers group (2022).
 CP2K is freely available from https://www.cp2k.org/ .

 Kuehne,Thomas D.; Iannuzzi,Marcella; Del Ben,Mauro;
 Rybkin,Vladimir V.; Seewald,Patrick; Stein,Frederick; Laino,Teodoro;
 Khaliullin,Rustam Z.; Schuett,Ole; Schiffmann,Florian; Golze,Dorothea;
 Wilhelm,Jan; Chulkov,Sergey; Bani-Hashemian,Mohammad Hossein;
 Weber,Valery; Borstnik,Urban; Taillefumier,Mathieu;
 Jakobovits,Alice Shoshana; Lazzaro,Alfio; Pabst,Hans; Mueller,Tiziano;
 Schade,Robert; Guidon,Manuel; Andermatt,Samuel; Holmberg,Nico;
 Schenter,Gregory K.; Hehn,Anna; Bussy,Augustin; Belleflamme,Fabian;
 Tabacchi,Gloria; Gloess,Andreas; Lass,Michael; Bethune,Iain;
 Mundy,Christopher J.; Plessl,Christian; Watkins,Matt;
 VandeVondele,Joost; Krack,Matthias; Hutter,Juerg. 
 The Journal of Chemical Physics, 152 (19), (2020). 
 CP2K: An electronic structure and molecular dynamics software package -
 Quickstep: Efficient and accurate electronic structure calculations.
 https://doi.org/10.1063/5.0007045

 Schuett, Ole; Messmer, Peter; Hutter, Juerg; VandeVondele, Joost. 
 Electronic Structure Calculations on Graphics Processing Units, John
 Wiley & Sons, Ltd, 173-190 (2016). 
 GPU-Accelerated Sparse Matrix-Matrix Multiplication for
 Linear Scaling Density Functional Theory.
 https://doi.org/10.1002/9781118670712.ch8

 Heinecke, A; Henry, G; Hutchinson, M; Pabst, H. 
 Proceedings of Intl. Supercomputing Conference, 981-991 (2016). 
 LIBXSMM: Accelerating Small Matrix Multiplications
 by Runtime Code Generation.
 https://doi.org/10.1109/SC.2016.83

 Borstnik, U; VandeVondele, J; Weber, V; Hutter, J. 
 PARALLEL COMPUTING, 40 (5-6), 47-58 (2014). 
 Sparse matrix multiplication: The distributed block-compressed sparse
 row library.
 https://doi.org/10.1016/j.parco.2014.03.012

 Hutter, J; Iannuzzi, M; Schiffmann, F; VandeVondele, J. 
 WIREs Comput Mol Sci., 4 (1), 15-25 (2014). 
 CP2K: atomistic simulations of condensed matter systems.
 https://doi.org/10.1002/wcms.1159

 Marek, A; Blum, V; Johanni, R; Havu, V; Lang, B; Auckenthaler, T;
 Heinecke, A; Bungartz, H; Lederer, H. 
 Journal of Physics: Condensed Matter, 26 (21), (2014). 
 The ELPA library: scalable parallel eigenvalue solutions for
 electronic structure
 theory and computational science.
 https://doi.org/10.1088/0953-8984/26/21/213201

 Krack, M. 
 THEORETICAL CHEMISTRY ACCOUNTS, 114 (1-3), 145-152 (2005). 
 Pseudopotentials for H to Kr optimized for gradient-corrected
 exchange-correlation functionals.
 https://doi.org/10.1007/s00214-005-0655-y

 Frigo, M; Johnson, SG. 
 PROCEEDINGS OF THE IEEE, 93 (2), 216-231 (2005). 
 The design and implementation of FFTW3.
 https://doi.org/10.1109/JPROC.2004.840301

 VandeVondele, J; Hutter, J. 
 JOURNAL OF CHEMICAL PHYSICS, 118 (10), 4365-4369 (2003). 
 An efficient orbital transformation method for electronic structure
 calculations.
 https://doi.org/10.1063/1.1543154

 Lippert, G; Hutter, J; Parrinello, M. 
 THEORETICAL CHEMISTRY ACCOUNTS, 103 (2), 124-140 (1999). 
 The Gaussian and augmented-plane-wave density functional method for ab
 initio molecular dynamics simulations.
 https://doi.org/10.1007/s002140050523

 Krack, M; Parrinello, M. 
 PHYSICAL CHEMISTRY CHEMICAL PHYSICS, 2 (10), 2105-2112 (2000). 
 All-electron ab-initio molecular dynamics.
 https://doi.org/10.1039/b001167n

 Hartwigsen, C; Goedecker, S; Hutter, J. 
 PHYSICAL REVIEW B, 58 (7), 3641-3662 (1998). 
 Relativistic separable dual-space Gaussian pseudopotentials from H to Rn.
 https://doi.org/10.1103/PhysRevB.58.3641

 Perdew, JP; Burke, K; Ernzerhof, M. 
 PHYSICAL REVIEW LETTERS, 77 (18), 3865-3868 (1996). 
 Generalized gradient approximation made simple.
 https://doi.org/10.1103/PhysRevLett.77.3865

 Goedecker, S; Teter, M; Hutter, J. 
 PHYSICAL REVIEW B, 54 (3), 1703-1710 (1996). 
 Separable dual-space Gaussian pseudopotentials.
 https://doi.org/10.1103/PhysRevB.54.1703


 -------------------------------------------------------------------------------
 -                                                                             -
 -                                T I M I N G                                  -
 -                                                                             -
 -------------------------------------------------------------------------------
 SUBROUTINE                       CALLS  ASD         SELF TIME        TOTAL TIME
                                MAXIMUM       AVERAGE  MAXIMUM  AVERAGE  MAXIMUM
 CP2K                                 1  1.0    0.017    0.034   93.504   93.537
 qs_energies                          1  2.0    0.000    0.000   93.184   93.217
 scf_env_do_scf                       1  3.0    0.000    0.000   92.884   92.917
 scf_env_do_scf_inner_loop          121  4.0    0.002    0.006   91.184   91.217
 qs_ks_update_qs_env                123  5.0    0.001    0.001   76.948   77.016
 rebuild_ks_matrix                  121  6.0    0.001    0.001   76.930   77.008
 qs_ks_build_kohn_sham_matrix       121  7.0    0.023    0.030   76.929   77.008
 prepare_gapw_den                   121  8.0    0.003    0.004   29.931   30.140
 pw_transfer                       1826  9.8    0.186    0.226   20.267   21.267
 fft_wrap_pw1pw2                   1463 10.9    0.020    0.024   19.812   20.846
 fft_wrap_pw1pw2_300                974 12.5    1.312    1.517   18.560   19.498
 qs_vxc_create                      121  8.0    0.002    0.002   18.215   18.221
 calculate_rho0_atom                242  9.0   13.996   16.809   13.996   16.809
 fft3d_ps                          1463 12.9    8.100    8.943   15.227   16.691
 calculate_rho_atom                 242  9.0    4.300   15.345    4.300   15.345
 rs_pw_transfer                     894  9.0    0.024    0.034   14.255   14.899
 qs_rho_update_rho                  122  5.0    0.002    0.003   14.699   14.711
 xc_rho_set_and_dset_create         121 10.0    0.129    0.137   12.818   14.424
 mp_sum_d                          2210  8.1   11.509   14.420   11.509   14.420
 calculate_rho_elec                 122  6.0    0.087    0.088   13.755   13.760
 integrate_vhg0_rspace              121  8.0    1.218    3.003   12.774   12.863
 xc_pw_derive                       486 11.0    0.006    0.007   10.786   11.928
 density_rs2pw                      122  7.0    0.006    0.007   10.880   11.539
 xc_exc_calc                         80  9.0    0.057    0.057    9.593    9.596
 mp_sum_dm                          730  7.7    8.391    8.897    8.391    8.897
 xc_vxc_pw_create                    41  9.0    0.056    0.059    8.620    8.623
 mp_alltoall_z22v                  1463 14.9    5.326    7.732    5.326    7.732
 rs_pw_transfer_RS2PW_300           243 10.0    3.717    4.657    6.807    7.469
 mp_sum_dv                          490 11.2    5.440    6.963    5.440    6.963
 put_rho0_on_grid                   121  9.0    0.099    0.117    6.192    6.402
 xc_functional_eval                 605 10.9    0.002    0.003    4.800    6.280
 pbe_lda_eval                       605 11.9    4.798    6.278    4.798    6.278
 calculate_vxc_atom                 121  8.0    0.058    0.956    5.764    5.766
 rs_pw_transfer_PW2RS_300           162 10.5    2.883    3.455    4.568    5.300
 xc_pw_divergence                    41 10.0    0.001    0.002    4.012    5.216
 yz_to_x                            773 13.1    0.703    0.917    3.538    5.198
 mp_waitany                       16200 11.2    3.824    5.085    3.824    5.085
 gaVxcgb_GC                          82  9.0    0.122    4.376    0.122    4.376
 Vh_1c_gg_integrals                 121  8.0    0.564    4.017    4.043    4.071
 x_to_yz                            690 14.8    1.047    1.210    3.537    4.068
 sum_up_and_integrate                41  8.0    0.021    0.028    3.686    3.696
 integrate_v_rspace                  41  9.0    0.001    0.001    3.665    3.668
 grid_collocate_task_list           122  7.0    2.080    3.338    2.080    3.338
 potential_pw2rs                     41 10.0    0.003    0.003    3.244    3.248
 mp_waitall_1                    108186 13.3    2.056    2.860    2.056    2.860
 pw_scatter_p                       690 13.8    1.817    2.033    1.817    2.033
 -------------------------------------------------------------------------------

 The number of warnings for this run is : 0
 
 -------------------------------------------------------------------------------
  **** **** ******  **  PROGRAM ENDED AT                 2022-05-31 15:26:14.841
 ***** ** ***  *** **   PROGRAM RAN ON                                   tcopt10
 **    ****   ******    PROGRAM RAN BY                                    hutter
 ***** **    ** ** **   PROGRAM PROCESS ID                                  6983
  **** **  *******  **  PROGRAM STOPPED IN /data/hutter/GITHUB/BASIS/scMOLOPT/PB
                                           E/Te
